 Entering Gaussian System, Link 0=/usr/local/g09/g09
 Initial command:
 /usr/local/g09/l1.exe "/home/vincent/Divers/Gau-13079.inp" -scrdir="/home/vincent/Divers/"
 Entering Link 1 = /usr/local/g09/l1.exe PID=     13080.
  
 Copyright (c) 1988,1990,1992,1993,1995,1998,2003,2009,2013,
            Gaussian, Inc.  All Rights Reserved.
  
 This is part of the Gaussian(R) 09 program.  It is based on
 the Gaussian(R) 03 system (copyright 2003, Gaussian, Inc.),
 the Gaussian(R) 98 system (copyright 1998, Gaussian, Inc.),
 the Gaussian(R) 94 system (copyright 1995, Gaussian, Inc.),
 the Gaussian 92(TM) system (copyright 1992, Gaussian, Inc.),
 the Gaussian 90(TM) system (copyright 1990, Gaussian, Inc.),
 the Gaussian 88(TM) system (copyright 1988, Gaussian, Inc.),
 the Gaussian 86(TM) system (copyright 1986, Carnegie Mellon
 University), and the Gaussian 82(TM) system (copyright 1983,
 Carnegie Mellon University). Gaussian is a federally registered
 trademark of Gaussian, Inc.
  
 This software contains proprietary and confidential information,
 including trade secrets, belonging to Gaussian, Inc.
  
 This software is provided under written license and may be
 used, copied, transmitted, or stored only in accord with that
 written license.
  
 The following legend is applicable only to US Government
 contracts under FAR:
  
                    RESTRICTED RIGHTS LEGEND
  
 Use, reproduction and disclosure by the US Government is
 subject to restrictions as set forth in subparagraphs (a)
 and (c) of the Commercial Computer Software - Restricted
 Rights clause in FAR 52.227-19.
  
 Gaussian, Inc.
 340 Quinnipiac St., Bldg. 40, Wallingford CT 06492
  
  
 ---------------------------------------------------------------
 Warning -- This program may not be used in any manner that
 competes with the business of Gaussian, Inc. or will provide
 assistance to any competitor of Gaussian, Inc.  The licensee
 of this program is prohibited from giving any competitor of
 Gaussian, Inc. access to this program.  By using this program,
 the user acknowledges that Gaussian, Inc. is engaged in the
 business of creating and licensing software in the field of
 computational chemistry and represents and warrants to the
 licensee that it is not a competitor of Gaussian, Inc. and that
 it will not use this program in any manner prohibited above.
 ---------------------------------------------------------------
  

 Cite this work as:
 Gaussian 09, Revision D.01,
 M. J. Frisch, G. W. Trucks, H. B. Schlegel, G. E. Scuseria, 
 M. A. Robb, J. R. Cheeseman, G. Scalmani, V. Barone, B. Mennucci, 
 G. A. Petersson, H. Nakatsuji, M. Caricato, X. Li, H. P. Hratchian, 
 A. F. Izmaylov, J. Bloino, G. Zheng, J. L. Sonnenberg, M. Hada, 
 M. Ehara, K. Toyota, R. Fukuda, J. Hasegawa, M. Ishida, T. Nakajima, 
 Y. Honda, O. Kitao, H. Nakai, T. Vreven, J. A. Montgomery, Jr., 
 J. E. Peralta, F. Ogliaro, M. Bearpark, J. J. Heyd, E. Brothers, 
 K. N. Kudin, V. N. Staroverov, T. Keith, R. Kobayashi, J. Normand, 
 K. Raghavachari, A. Rendell, J. C. Burant, S. S. Iyengar, J. Tomasi, 
 M. Cossi, N. Rega, J. M. Millam, M. Klene, J. E. Knox, J. B. Cross, 
 V. Bakken, C. Adamo, J. Jaramillo, R. Gomperts, R. E. Stratmann, 
 O. Yazyev, A. J. Austin, R. Cammi, C. Pomelli, J. W. Ochterski, 
 R. L. Martin, K. Morokuma, V. G. Zakrzewski, G. A. Voth, 
 P. Salvador, J. J. Dannenberg, S. Dapprich, A. D. Daniels, 
 O. Farkas, J. B. Foresman, J. V. Ortiz, J. Cioslowski, 
 and D. J. Fox, Gaussian, Inc., Wallingford CT, 2013.
 
 ******************************************
 Gaussian 09:  EM64L-G09RevD.01 24-Apr-2013
                11-Mar-2016 
 ******************************************
 %nprocs=12
 Will use up to   12 processors via shared memory.
 %mem=8000mb
 %chk=Ammonium.chk
 ----------------------------------
 #p opt freq 6-31G(d) pop=hirshfeld
 ----------------------------------
 1/18=20,19=15,38=1/1,3;
 2/9=110,12=2,17=6,18=5,40=1/2;
 3/5=1,6=6,7=1,11=9,16=1,25=1,30=1,71=1/1,2,3;
 4//1;
 5/5=2,38=5/2;
 6/7=2,8=2,9=2,10=2,28=1,79=1/1;
 7//1,2,3,16;
 1/18=20,19=15/3(2);
 2/9=110/2;
 99//99;
 2/9=110/2;
 3/5=1,6=6,7=1,11=9,16=1,25=1,30=1,71=1/1,2,3;
 4/5=5,16=3,69=1/1;
 5/5=2,38=5/2;
 7//1,2,3,16;
 1/18=20,19=15/3(-5);
 2/9=110/2;
 6/7=2,8=2,9=2,10=2,19=2,28=1,79=1/1;
 99/9=1/99;
 Leave Link    1 at Fri Mar 11 14:10:04 2016, MaxMem=  1048576000 cpu:         0.3
 (Enter /usr/local/g09/l101.exe)
 --------
 Ammonium
 --------
 Symbolic Z-matrix:
 Charge =  1 Multiplicity = 1
 N                    -0.66225  -0.09934   0. 
 C                    -0.17224   0.59362  -1.20025 
 H                     0.89776   0.59362  -1.20024 
 H                    -0.5289    0.08921  -2.0739 
 H                    -0.52891   1.60243  -1.20026 
 C                    -0.17227  -1.48527   0. 
 H                    -0.52894  -1.98967   0.87365 
 H                    -0.52895  -1.98967  -0.87365 
 H                     0.89773  -1.48529  0. 
 C                    -0.17224   0.59362   1.20025 
 H                    -0.52874   1.60249   1.20015 
 H                    -0.52908   0.08933   2.0739 
 H                     0.89776   0.59344   1.20035 
 C                    -2.13225  -0.09932   0. 
 H                    -2.48891   0.90949   0.00196 
 H                    -2.48892  -0.60202  -0.87463 
 H                    -2.48892  -0.60541   0.87267 
 
 NAtoms=     17 NQM=       17 NQMF=       0 NMMI=      0 NMMIF=      0
                NMic=       0 NMicF=      0.
                    Isotopes and Nuclear Properties:
 (Nuclear quadrupole moments (NQMom) in fm**2, nuclear magnetic moments (NMagM)
  in nuclear magnetons)

  Atom         1           2           3           4           5           6           7           8           9          10
 IAtWgt=          14          12           1           1           1          12           1           1           1          12
 AtmWgt=  14.0030740  12.0000000   1.0078250   1.0078250   1.0078250  12.0000000   1.0078250   1.0078250   1.0078250  12.0000000
 NucSpn=           2           0           1           1           1           0           1           1           1           0
 AtZEff=   0.0000000   0.0000000   0.0000000   0.0000000   0.0000000   0.0000000   0.0000000   0.0000000   0.0000000   0.0000000
 NQMom=    2.0440000   0.0000000   0.0000000   0.0000000   0.0000000   0.0000000   0.0000000   0.0000000   0.0000000   0.0000000
 NMagM=    0.4037610   0.0000000   2.7928460   2.7928460   2.7928460   0.0000000   2.7928460   2.7928460   2.7928460   0.0000000
 AtZNuc=   7.0000000   6.0000000   1.0000000   1.0000000   1.0000000   6.0000000   1.0000000   1.0000000   1.0000000   6.0000000

  Atom        11          12          13          14          15          16          17
 IAtWgt=           1           1           1          12           1           1           1
 AtmWgt=   1.0078250   1.0078250   1.0078250  12.0000000   1.0078250   1.0078250   1.0078250
 NucSpn=           1           1           1           0           1           1           1
 AtZEff=   0.0000000   0.0000000   0.0000000   0.0000000   0.0000000   0.0000000   0.0000000
 NQMom=    0.0000000   0.0000000   0.0000000   0.0000000   0.0000000   0.0000000   0.0000000
 NMagM=    2.7928460   2.7928460   2.7928460   0.0000000   2.7928460   2.7928460   2.7928460
 AtZNuc=   1.0000000   1.0000000   1.0000000   6.0000000   1.0000000   1.0000000   1.0000000
 Leave Link  101 at Fri Mar 11 14:10:06 2016, MaxMem=  1048576000 cpu:         1.9
 (Enter /usr/local/g09/l103.exe)

 GradGradGradGradGradGradGradGradGradGradGradGradGradGradGradGradGradGrad
 Berny optimization.
 Initialization pass.
                           ----------------------------
                           !    Initial Parameters    !
                           ! (Angstroms and Degrees)  !
 --------------------------                            --------------------------
 ! Name  Definition              Value          Derivative Info.                !
 --------------------------------------------------------------------------------
 ! R1    R(1,2)                  1.47           estimate D2E/DX2                !
 ! R2    R(1,6)                  1.47           estimate D2E/DX2                !
 ! R3    R(1,10)                 1.47           estimate D2E/DX2                !
 ! R4    R(1,14)                 1.47           estimate D2E/DX2                !
 ! R5    R(2,3)                  1.07           estimate D2E/DX2                !
 ! R6    R(2,4)                  1.07           estimate D2E/DX2                !
 ! R7    R(2,5)                  1.07           estimate D2E/DX2                !
 ! R8    R(6,7)                  1.07           estimate D2E/DX2                !
 ! R9    R(6,8)                  1.07           estimate D2E/DX2                !
 ! R10   R(6,9)                  1.07           estimate D2E/DX2                !
 ! R11   R(10,11)                1.07           estimate D2E/DX2                !
 ! R12   R(10,12)                1.07           estimate D2E/DX2                !
 ! R13   R(10,13)                1.07           estimate D2E/DX2                !
 ! R14   R(14,15)                1.07           estimate D2E/DX2                !
 ! R15   R(14,16)                1.07           estimate D2E/DX2                !
 ! R16   R(14,17)                1.07           estimate D2E/DX2                !
 ! A1    A(2,1,6)              109.4712         estimate D2E/DX2                !
 ! A2    A(2,1,10)             109.4712         estimate D2E/DX2                !
 ! A3    A(2,1,14)             109.4712         estimate D2E/DX2                !
 ! A4    A(6,1,10)             109.4712         estimate D2E/DX2                !
 ! A5    A(6,1,14)             109.4712         estimate D2E/DX2                !
 ! A6    A(10,1,14)            109.4712         estimate D2E/DX2                !
 ! A7    A(1,2,3)              109.4712         estimate D2E/DX2                !
 ! A8    A(1,2,4)              109.4712         estimate D2E/DX2                !
 ! A9    A(1,2,5)              109.4712         estimate D2E/DX2                !
 ! A10   A(3,2,4)              109.4713         estimate D2E/DX2                !
 ! A11   A(3,2,5)              109.4712         estimate D2E/DX2                !
 ! A12   A(4,2,5)              109.4712         estimate D2E/DX2                !
 ! A13   A(1,6,7)              109.4712         estimate D2E/DX2                !
 ! A14   A(1,6,8)              109.4712         estimate D2E/DX2                !
 ! A15   A(1,6,9)              109.4712         estimate D2E/DX2                !
 ! A16   A(7,6,8)              109.4713         estimate D2E/DX2                !
 ! A17   A(7,6,9)              109.4712         estimate D2E/DX2                !
 ! A18   A(8,6,9)              109.4712         estimate D2E/DX2                !
 ! A19   A(1,10,11)            109.4712         estimate D2E/DX2                !
 ! A20   A(1,10,12)            109.4712         estimate D2E/DX2                !
 ! A21   A(1,10,13)            109.4712         estimate D2E/DX2                !
 ! A22   A(11,10,12)           109.4713         estimate D2E/DX2                !
 ! A23   A(11,10,13)           109.4712         estimate D2E/DX2                !
 ! A24   A(12,10,13)           109.4712         estimate D2E/DX2                !
 ! A25   A(1,14,15)            109.4712         estimate D2E/DX2                !
 ! A26   A(1,14,16)            109.4712         estimate D2E/DX2                !
 ! A27   A(1,14,17)            109.4712         estimate D2E/DX2                !
 ! A28   A(15,14,16)           109.4713         estimate D2E/DX2                !
 ! A29   A(15,14,17)           109.4712         estimate D2E/DX2                !
 ! A30   A(16,14,17)           109.4712         estimate D2E/DX2                !
 ! D1    D(6,1,2,3)            -60.0011         estimate D2E/DX2                !
 ! D2    D(6,1,2,4)             59.9989         estimate D2E/DX2                !
 ! D3    D(6,1,2,5)            179.9989         estimate D2E/DX2                !
 ! D4    D(10,1,2,3)            59.9989         estimate D2E/DX2                !
 ! D5    D(10,1,2,4)           179.9989         estimate D2E/DX2                !
 ! D6    D(10,1,2,5)           -60.0011         estimate D2E/DX2                !
 ! D7    D(14,1,2,3)           179.9989         estimate D2E/DX2                !
 ! D8    D(14,1,2,4)           -60.0011         estimate D2E/DX2                !
 ! D9    D(14,1,2,5)            59.9989         estimate D2E/DX2                !
 ! D10   D(2,1,6,7)            179.9997         estimate D2E/DX2                !
 ! D11   D(2,1,6,8)            -60.0002         estimate D2E/DX2                !
 ! D12   D(2,1,6,9)             59.9998         estimate D2E/DX2                !
 ! D13   D(10,1,6,7)            59.9997         estimate D2E/DX2                !
 ! D14   D(10,1,6,8)           179.9998         estimate D2E/DX2                !
 ! D15   D(10,1,6,9)           -60.0002         estimate D2E/DX2                !
 ! D16   D(14,1,6,7)           -60.0003         estimate D2E/DX2                !
 ! D17   D(14,1,6,8)            59.9998         estimate D2E/DX2                !
 ! D18   D(14,1,6,9)           179.9998         estimate D2E/DX2                !
 ! D19   D(2,1,10,11)           59.9889         estimate D2E/DX2                !
 ! D20   D(2,1,10,12)          179.9889         estimate D2E/DX2                !
 ! D21   D(2,1,10,13)          -60.0111         estimate D2E/DX2                !
 ! D22   D(6,1,10,11)          179.9889         estimate D2E/DX2                !
 ! D23   D(6,1,10,12)          -60.0111         estimate D2E/DX2                !
 ! D24   D(6,1,10,13)           59.9889         estimate D2E/DX2                !
 ! D25   D(14,1,10,11)         -60.0111         estimate D2E/DX2                !
 ! D26   D(14,1,10,12)          59.9889         estimate D2E/DX2                !
 ! D27   D(14,1,10,13)         179.9889         estimate D2E/DX2                !
 ! D28   D(2,1,14,15)          -60.1111         estimate D2E/DX2                !
 ! D29   D(2,1,14,16)           59.8889         estimate D2E/DX2                !
 ! D30   D(2,1,14,17)          179.8889         estimate D2E/DX2                !
 ! D31   D(6,1,14,15)          179.8889         estimate D2E/DX2                !
 ! D32   D(6,1,14,16)          -60.1111         estimate D2E/DX2                !
 ! D33   D(6,1,14,17)           59.8889         estimate D2E/DX2                !
 ! D34   D(10,1,14,15)          59.8889         estimate D2E/DX2                !
 ! D35   D(10,1,14,16)         179.8889         estimate D2E/DX2                !
 ! D36   D(10,1,14,17)         -60.1111         estimate D2E/DX2                !
 --------------------------------------------------------------------------------
 Trust Radius=3.00D-01 FncErr=1.00D-07 GrdErr=1.00D-07
 Number of steps in this run=     92 maximum allowed number of steps=    102.
 GradGradGradGradGradGradGradGradGradGradGradGradGradGradGradGradGradGrad

 Leave Link  103 at Fri Mar 11 14:10:07 2016, MaxMem=  1048576000 cpu:         0.1
 (Enter /usr/local/g09/l202.exe)
                          Input orientation:                          
 ---------------------------------------------------------------------
 Center     Atomic      Atomic             Coordinates (Angstroms)
 Number     Number       Type             X           Y           Z
 ---------------------------------------------------------------------
      1          7           0       -0.662252   -0.099338    0.000000
      2          6           0       -0.172243    0.593621   -1.200250
      3          1           0        0.897757    0.593624   -1.200240
      4          1           0       -0.528900    0.089211   -2.073901
      5          1           0       -0.528913    1.602425   -1.200260
      6          6           0       -0.172269   -1.485273    0.000000
      7          1           0       -0.528939   -1.989670    0.873654
      8          1           0       -0.528945   -1.989673   -0.873649
      9          1           0        0.897731   -1.485287   -0.000004
     10          6           0       -0.172243    0.593621    1.200250
     11          1           0       -0.528738    1.602487    1.200152
     12          1           0       -0.529075    0.089335    2.073901
     13          1           0        0.897757    0.593438    1.200348
     14          6           0       -2.132252   -0.099319    0.000000
     15          1           0       -2.488905    0.909489    0.001956
     16          1           0       -2.488924   -0.602023   -0.874628
     17          1           0       -2.488925   -0.605411    0.872672
 ---------------------------------------------------------------------
                    Distance matrix (angstroms):
                    1          2          3          4          5
     1  N    0.000000
     2  C    1.470000   0.000000
     3  H    2.086720   1.070000   0.000000
     4  H    2.086720   1.070000   1.747303   0.000000
     5  H    2.086720   1.070000   1.747303   1.747303   0.000000
     6  C    1.470000   2.400500   2.628183   2.628165   3.331921
     7  H    2.086719   3.331921   3.606924   3.606913   4.147802
     8  H    2.086720   2.628176   2.969102   2.400492   3.606916
     9  H    2.086720   2.628173   2.400508   2.969069   3.606923
    10  C    1.470000   2.400500   2.628165   3.331921   2.628183
    11  H    2.086720   2.628085   2.968935   3.606859   2.400412
    12  H    2.086720   3.331921   3.606960   4.147802   3.606879
    13  H    2.086720   2.628264   2.400588   3.606980   2.969235
    14  C    1.470000   2.400500   3.331921   2.628183   2.628165
    15  H    2.086720   2.629068   3.607565   2.970465   2.401469
    16  H    2.086720   2.627281   3.606273   2.399532   2.967705
    17  H    2.086720   3.331921   4.147802   3.606451   3.607386
                    6          7          8          9         10
     6  C    0.000000
     7  H    1.070000   0.000000
     8  H    1.070000   1.747303   0.000000
     9  H    1.070000   1.747303   1.747303   0.000000
    10  C    2.400500   2.628172   3.331921   2.628176   0.000000
    11  H    3.331921   3.606964   4.147802   3.606873   1.070000
    12  H    2.628263   2.400594   3.606983   2.969224   1.070000
    13  H    2.628085   2.968945   3.606855   2.400405   1.070000
    14  C    2.400500   2.628176   2.628172   3.331921   2.400500
    15  H    3.331920   3.606445   3.607391   4.147802   2.627281
    16  H    2.629068   2.970454   2.401477   3.607569   3.331920
    17  H    2.627281   2.399525   2.967716   3.606270   2.629068
                   11         12         13         14         15
    11  H    0.000000
    12  H    1.747303   0.000000
    13  H    1.747303   1.747303   0.000000
    14  C    2.628263   2.628085   3.331921   0.000000
    15  H    2.399620   2.967582   3.606316   1.070000   0.000000
    16  H    3.606509   3.607327   4.147802   1.070000   1.747303
    17  H    2.970588   2.401382   3.607523   1.070000   1.747303
                   16         17
    16  H    0.000000
    17  H    1.747303   0.000000
 This structure is nearly, but not quite of a higher symmetry.
 Consider Symm=Loose if the higher symmetry is desired.
 This structure is nearly, but not quite of a higher symmetry.
 Consider Symm=Loose if the higher symmetry is desired.
 Stoichiometry    C4H12N(1+)
 Framework group  C1[X(C4H12N)]
 Deg. of freedom    45
 Full point group                 C1      NOp   1
 Largest Abelian subgroup         C1      NOp   1
 Largest concise Abelian subgroup C1      NOp   1
                         Standard orientation:                         
 ---------------------------------------------------------------------
 Center     Atomic      Atomic             Coordinates (Angstroms)
 Number     Number       Type             X           Y           Z
 ---------------------------------------------------------------------
      1          7           0        0.000000    0.000000    0.000000
      2          6           0        1.465956   -0.072703    0.081156
      3          1           0        1.807306    0.518414    0.905147
      4          1           0        1.765254   -1.090035    0.223831
      5          1           0        1.892365    0.300592   -0.826438
      6          6           0       -0.585814   -0.512870    1.246871
      7          1           0       -1.652871   -0.459945    1.187799
      8          1           0       -0.286519   -1.530206    1.389524
      9          1           0       -0.244462    0.078229    2.070874
     10          6           0       -0.411186    1.397646   -0.195985
     11          1           0        0.015380    1.771020   -1.103473
     12          1           0       -1.478233    1.450542   -0.255251
     13          1           0       -0.070005    1.988712    0.628112
     14          6           0       -0.468956   -0.812073   -1.132041
     15          1           0       -0.044077   -0.437563   -2.039852
     16          1           0       -0.167986   -1.829048   -0.990336
     17          1           0       -1.536153   -0.760711   -1.189939
 ---------------------------------------------------------------------
 Rotational constants (GHZ):      4.8474542      4.8474542      4.8474541
 Leave Link  202 at Fri Mar 11 14:10:08 2016, MaxMem=  1048576000 cpu:         2.9
 (Enter /usr/local/g09/l301.exe)
 Standard basis: 6-31G(d) (6D, 7F)
 Ernie: Thresh=  0.10000D-02 Tol=  0.10000D-05 Strict=F.
 There are    99 symmetry adapted cartesian basis functions of A   symmetry.
 There are    99 symmetry adapted basis functions of A   symmetry.
    99 basis functions,   188 primitive gaussians,    99 cartesian basis functions
    21 alpha electrons       21 beta electrons
       nuclear repulsion energy       218.1374628922 Hartrees.
 IExCor=    0 DFT=F Ex=HF Corr=None ExCW=0 ScaHFX=  1.000000
 ScaDFX=  1.000000  1.000000  1.000000  1.000000 ScalE2=  1.000000  1.000000
 IRadAn=      0 IRanWt=     -1 IRanGd=            0 ICorTp=0 IEmpDi=  4
 NAtoms=   17 NActive=   17 NUniq=   17 SFac= 1.00D+00 NAtFMM=   60 NAOKFM=F Big=F
 Integral buffers will be    131072 words long.
 Raffenetti 1 integral format.
 Two-electron integral symmetry is turned on.
 Leave Link  301 at Fri Mar 11 14:10:09 2016, MaxMem=  1048576000 cpu:         0.4
 (Enter /usr/local/g09/l302.exe)
 NPDir=0 NMtPBC=     1 NCelOv=     1 NCel=       1 NClECP=     1 NCelD=      1
         NCelK=      1 NCelE2=     1 NClLst=     1 CellRange=     0.0.
 One-electron integrals computed using PRISM.
 NBasis=    99 RedAO= T EigKep=  5.57D-03  NBF=    99
 NBsUse=    99 1.00D-06 EigRej= -1.00D+00 NBFU=    99
 Leave Link  302 at Fri Mar 11 14:10:17 2016, MaxMem=  1048576000 cpu:        22.0
 (Enter /usr/local/g09/l303.exe)
 DipDrv:  MaxL=1.
 Leave Link  303 at Fri Mar 11 14:10:18 2016, MaxMem=  1048576000 cpu:         3.5
 (Enter /usr/local/g09/l401.exe)
 ExpMin= 1.61D-01 ExpMax= 4.17D+03 ExpMxC= 6.27D+02 IAcc=1 IRadAn=         1 AccDes= 0.00D+00
 Harris functional with IExCor=  205 and IRadAn=       1 diagonalized for initial guess.
 HarFok:  IExCor=  205 AccDes= 0.00D+00 IRadAn=         1 IDoV= 1 UseB2=F ITyADJ=14
 ICtDFT=  3500011 ScaDFX=  1.000000  1.000000  1.000000  1.000000
 FoFCou: FMM=F IPFlag=           0 FMFlag=      100000 FMFlg1=           0
         NFxFlg=           0 DoJE=T BraDBF=F KetDBF=T FulRan=T
         wScrn=  0.000000 ICntrl=     500 IOpCl=  0 I1Cent=   200000004 NGrid=           0
         NMat0=    1 NMatS0=      1 NMatT0=    0 NMatD0=    1 NMtDS0=    0 NMtDT0=    0
 Petite list used in FoFCou.
 Harris En= -213.198754046590    
 JPrj=0 DoOrth=F DoCkMO=F.
 Leave Link  401 at Fri Mar 11 14:10:19 2016, MaxMem=  1048576000 cpu:         5.7
 (Enter /usr/local/g09/l502.exe)
 Closed shell SCF:
 Using DIIS extrapolation, IDIIS=  1040.
 Integral symmetry usage will be decided dynamically.
 Keep R1 ints in memory in canonical form, NReq=13199018.
 IVT=       49912 IEndB=       49912 NGot=  1048576000 MDV=  1036272364
 LenX=  1036272364 LenY=  1036262122
 Requested convergence on RMS density matrix=1.00D-08 within 128 cycles.
 Requested convergence on MAX density matrix=1.00D-06.
 Requested convergence on             energy=1.00D-06.
 No special actions if energy rises.
 FoFCou: FMM=F IPFlag=           0 FMFlag=           0 FMFlg1=           0
         NFxFlg=           0 DoJE=F BraDBF=F KetDBF=F FulRan=T
         wScrn=  0.000000 ICntrl=     600 IOpCl=  0 I1Cent=           0 NGrid=           0
         NMat0=    1 NMatS0=   4950 NMatT0=    0 NMatD0=    1 NMtDS0=    0 NMtDT0=    0
 Symmetry not used in FoFCou.

 Cycle   1  Pass 1  IDiag  1:
 E= -212.434421925166    
 DIIS: error= 6.26D-02 at cycle   1 NSaved=   1.
 NSaved= 1 IEnMin= 1 EnMin= -212.434421925166     IErMin= 1 ErrMin= 6.26D-02
 ErrMax= 6.26D-02  0.00D+00 EMaxC= 1.00D-01 BMatC= 3.83D-01 BMatP= 3.83D-01
 IDIUse=3 WtCom= 3.74D-01 WtEn= 6.26D-01
 Coeff-Com:  0.100D+01
 Coeff-En:   0.100D+01
 Coeff:      0.100D+01
 Gap=     0.743 Goal=   None    Shift=    0.000
 GapD=    0.743 DampG=2.000 DampE=0.500 DampFc=1.0000 IDamp=-1.
 RMSDP=5.57D-03 MaxDP=8.74D-02              OVMax= 1.03D-01

 Cycle   2  Pass 1  IDiag  1:
 E= -212.653027644654     Delta-E=       -0.218605719488 Rises=F Damp=F
 DIIS: error= 1.81D-02 at cycle   2 NSaved=   2.
 NSaved= 2 IEnMin= 2 EnMin= -212.653027644654     IErMin= 2 ErrMin= 1.81D-02
 ErrMax= 1.81D-02  0.00D+00 EMaxC= 1.00D-01 BMatC= 3.97D-02 BMatP= 3.83D-01
 IDIUse=3 WtCom= 8.19D-01 WtEn= 1.81D-01
 Coeff-Com:  0.171D+00 0.829D+00
 Coeff-En:   0.000D+00 0.100D+01
 Coeff:      0.140D+00 0.860D+00
 Gap=     0.762 Goal=   None    Shift=    0.000
 RMSDP=1.69D-03 MaxDP=3.49D-02 DE=-2.19D-01 OVMax= 2.99D-02

 Cycle   3  Pass 1  IDiag  1:
 E= -212.680719043716     Delta-E=       -0.027691399062 Rises=F Damp=F
 DIIS: error= 5.57D-03 at cycle   3 NSaved=   3.
 NSaved= 3 IEnMin= 3 EnMin= -212.680719043716     IErMin= 3 ErrMin= 5.57D-03
 ErrMax= 5.57D-03  0.00D+00 EMaxC= 1.00D-01 BMatC= 2.16D-03 BMatP= 3.97D-02
 IDIUse=3 WtCom= 9.44D-01 WtEn= 5.57D-02
 Coeff-Com: -0.218D-01 0.144D+00 0.878D+00
 Coeff-En:   0.000D+00 0.000D+00 0.100D+01
 Coeff:     -0.206D-01 0.136D+00 0.885D+00
 Gap=     0.752 Goal=   None    Shift=    0.000
 RMSDP=4.41D-04 MaxDP=1.09D-02 DE=-2.77D-02 OVMax= 9.15D-03

 Cycle   4  Pass 1  IDiag  1:
 E= -212.682514830715     Delta-E=       -0.001795786998 Rises=F Damp=F
 DIIS: error= 1.35D-03 at cycle   4 NSaved=   4.
 NSaved= 4 IEnMin= 4 EnMin= -212.682514830715     IErMin= 4 ErrMin= 1.35D-03
 ErrMax= 1.35D-03  0.00D+00 EMaxC= 1.00D-01 BMatC= 1.48D-04 BMatP= 2.16D-03
 IDIUse=3 WtCom= 9.86D-01 WtEn= 1.35D-02
 Coeff-Com: -0.905D-02 0.212D-01 0.278D+00 0.710D+00
 Coeff-En:   0.000D+00 0.000D+00 0.000D+00 0.100D+01
 Coeff:     -0.893D-02 0.209D-01 0.274D+00 0.714D+00
 Gap=     0.748 Goal=   None    Shift=    0.000
 RMSDP=9.34D-05 MaxDP=2.25D-03 DE=-1.80D-03 OVMax= 1.86D-03

 Cycle   5  Pass 1  IDiag  1:
 E= -212.682633299925     Delta-E=       -0.000118469211 Rises=F Damp=F
 DIIS: error= 2.08D-04 at cycle   5 NSaved=   5.
 NSaved= 5 IEnMin= 5 EnMin= -212.682633299925     IErMin= 5 ErrMin= 2.08D-04
 ErrMax= 2.08D-04  0.00D+00 EMaxC= 1.00D-01 BMatC= 3.33D-06 BMatP= 1.48D-04
 IDIUse=3 WtCom= 9.98D-01 WtEn= 2.08D-03
 Coeff-Com:  0.190D-02-0.144D-01-0.750D-01-0.431D-01 0.113D+01
 Coeff-En:   0.000D+00 0.000D+00 0.000D+00 0.000D+00 0.100D+01
 Coeff:      0.189D-02-0.143D-01-0.748D-01-0.430D-01 0.113D+01
 Gap=     0.748 Goal=   None    Shift=    0.000
 RMSDP=4.71D-05 MaxDP=1.25D-03 DE=-1.18D-04 OVMax= 5.79D-04

 Cycle   6  Pass 1  IDiag  1:
 E= -212.682638762890     Delta-E=       -0.000005462965 Rises=F Damp=F
 DIIS: error= 2.75D-05 at cycle   6 NSaved=   6.
 NSaved= 6 IEnMin= 6 EnMin= -212.682638762890     IErMin= 6 ErrMin= 2.75D-05
 ErrMax= 2.75D-05  0.00D+00 EMaxC= 1.00D-01 BMatC= 5.83D-08 BMatP= 3.33D-06
 IDIUse=1 WtCom= 1.00D+00 WtEn= 0.00D+00
 Coeff-Com:  0.893D-04-0.122D-03-0.982D-03-0.174D-01-0.544D-01 0.107D+01
 Coeff:      0.893D-04-0.122D-03-0.982D-03-0.174D-01-0.544D-01 0.107D+01
 Gap=     0.748 Goal=   None    Shift=    0.000
 RMSDP=5.31D-06 MaxDP=1.13D-04 DE=-5.46D-06 OVMax= 7.54D-05

 Cycle   7  Pass 1  IDiag  1:
 E= -212.682638846835     Delta-E=       -0.000000083945 Rises=F Damp=F
 DIIS: error= 4.88D-06 at cycle   7 NSaved=   7.
 NSaved= 7 IEnMin= 7 EnMin= -212.682638846835     IErMin= 7 ErrMin= 4.88D-06
 ErrMax= 4.88D-06  0.00D+00 EMaxC= 1.00D-01 BMatC= 9.79D-10 BMatP= 5.83D-08
 IDIUse=1 WtCom= 1.00D+00 WtEn= 0.00D+00
 Coeff-Com: -0.437D-04 0.218D-03 0.151D-02 0.475D-02-0.666D-02-0.249D+00
 Coeff-Com:  0.125D+01
 Coeff:     -0.437D-04 0.218D-03 0.151D-02 0.475D-02-0.666D-02-0.249D+00
 Coeff:      0.125D+01
 Gap=     0.748 Goal=   None    Shift=    0.000
 RMSDP=7.52D-07 MaxDP=8.81D-06 DE=-8.39D-08 OVMax= 1.25D-05

 Cycle   8  Pass 1  IDiag  1:
 E= -212.682638848571     Delta-E=       -0.000000001736 Rises=F Damp=F
 DIIS: error= 5.58D-07 at cycle   8 NSaved=   8.
 NSaved= 8 IEnMin= 8 EnMin= -212.682638848571     IErMin= 8 ErrMin= 5.58D-07
 ErrMax= 5.58D-07  0.00D+00 EMaxC= 1.00D-01 BMatC= 1.13D-11 BMatP= 9.79D-10
 IDIUse=1 WtCom= 1.00D+00 WtEn= 0.00D+00
 Coeff-Com:  0.964D-05-0.551D-04-0.365D-03-0.111D-02 0.238D-02 0.560D-01
 Coeff-Com: -0.345D+00 0.129D+01
 Coeff:      0.964D-05-0.551D-04-0.365D-03-0.111D-02 0.238D-02 0.560D-01
 Coeff:     -0.345D+00 0.129D+01
 Gap=     0.748 Goal=   None    Shift=    0.000
 RMSDP=6.80D-08 MaxDP=8.54D-07 DE=-1.74D-09 OVMax= 1.42D-06

 Cycle   9  Pass 1  IDiag  1:
 E= -212.682638848595     Delta-E=       -0.000000000023 Rises=F Damp=F
 DIIS: error= 3.61D-08 at cycle   9 NSaved=   9.
 NSaved= 9 IEnMin= 9 EnMin= -212.682638848595     IErMin= 9 ErrMin= 3.61D-08
 ErrMax= 3.61D-08  0.00D+00 EMaxC= 1.00D-01 BMatC= 1.09D-13 BMatP= 1.13D-11
 IDIUse=1 WtCom= 1.00D+00 WtEn= 0.00D+00
 Coeff-Com: -0.131D-05 0.810D-05 0.509D-04 0.124D-03-0.439D-03-0.567D-02
 Coeff-Com:  0.413D-01-0.226D+00 0.119D+01
 Coeff:     -0.131D-05 0.810D-05 0.509D-04 0.124D-03-0.439D-03-0.567D-02
 Coeff:      0.413D-01-0.226D+00 0.119D+01
 Gap=     0.748 Goal=   None    Shift=    0.000
 RMSDP=6.94D-09 MaxDP=8.96D-08 DE=-2.35D-11 OVMax= 1.17D-07

 SCF Done:  E(RHF) =  -212.682638849     A.U. after    9 cycles
            NFock=  9  Conv=0.69D-08     -V/T= 1.9990
 KE= 2.128973744263D+02 PE=-9.215081869045D+02 EE= 2.777907107374D+02
 Leave Link  502 at Fri Mar 11 14:10:39 2016, MaxMem=  1048576000 cpu:        70.0
 (Enter /usr/local/g09/l601.exe)
 Copying SCF densities to generalized density rwf, IOpCl= 0 IROHF=0.

 **********************************************************************

            Population analysis using the SCF density.

 **********************************************************************

 Orbital symmetries:
       Occupied  (A) (A) (A) (A) (A) (A) (A) (A) (A) (A) (A) (A)
                 (A) (A) (A) (A) (A) (A) (A) (A) (A)
       Virtual   (A) (A) (A) (A) (A) (A) (A) (A) (A) (A) (A) (A)
                 (A) (A) (A) (A) (A) (A) (A) (A) (A) (A) (A) (A)
                 (A) (A) (A) (A) (A) (A) (A) (A) (A) (A) (A) (A)
                 (A) (A) (A) (A) (A) (A) (A) (A) (A) (A) (A) (A)
                 (A) (A) (A) (A) (A) (A) (A) (A) (A) (A) (A) (A)
                 (A) (A) (A) (A) (A) (A) (A) (A) (A) (A) (A) (A)
                 (A) (A) (A) (A) (A) (A)
 The electronic state is 1-A.
 Alpha  occ. eigenvalues --  -15.88026 -11.45082 -11.45082 -11.45082 -11.45079
 Alpha  occ. eigenvalues --   -1.54275  -1.19278  -1.19278  -1.19278  -1.03575
 Alpha  occ. eigenvalues --   -0.89028  -0.89028  -0.89028  -0.79347  -0.79347
 Alpha  occ. eigenvalues --   -0.73990  -0.73990  -0.73990  -0.73229  -0.73229
 Alpha  occ. eigenvalues --   -0.73229
 Alpha virt. eigenvalues --    0.01614   0.09051   0.09051   0.09051   0.11238
 Alpha virt. eigenvalues --    0.13289   0.13289   0.13289   0.14834   0.14834
 Alpha virt. eigenvalues --    0.18439   0.18439   0.18439   0.20749   0.20749
 Alpha virt. eigenvalues --    0.20749   0.49290   0.49290   0.51686   0.51686
 Alpha virt. eigenvalues --    0.51686   0.65993   0.67444   0.67444   0.67444
 Alpha virt. eigenvalues --    0.85958   0.85958   0.85958   0.89096   0.89096
 Alpha virt. eigenvalues --    0.89096   0.94103   0.97160   0.97160   0.97160
 Alpha virt. eigenvalues --    1.01742   1.01742   1.03285   1.05000   1.05001
 Alpha virt. eigenvalues --    1.05001   1.08296   1.08296   1.08296   1.41246
 Alpha virt. eigenvalues --    1.41246   1.58978   1.58978   1.58978   1.82550
 Alpha virt. eigenvalues --    1.82550   1.82550   1.88327   2.06323   2.06323
 Alpha virt. eigenvalues --    2.06323   2.22165   2.22165   2.23251   2.23251
 Alpha virt. eigenvalues --    2.23251   2.36778   2.41619   2.41619   2.41620
 Alpha virt. eigenvalues --    2.41860   2.41860   2.41860   2.77904   2.77904
 Alpha virt. eigenvalues --    2.86679   2.86679   2.86679   4.37080   4.52431
 Alpha virt. eigenvalues --    4.52431   4.52431   4.64832
          Condensed to atoms (all electrons):
               1          2          3          4          5          6
     1  N    7.178234   0.187166  -0.032626  -0.032626  -0.032626   0.187166
     2  C    0.187166   5.166226   0.397461   0.397462   0.397460  -0.061870
     3  H   -0.032626   0.397461   0.426628  -0.018911  -0.018914  -0.003340
     4  H   -0.032626   0.397462  -0.018911   0.426630  -0.018912  -0.003335
     5  H   -0.032626   0.397460  -0.018914  -0.018912   0.426626   0.004080
     6  C    0.187166  -0.061870  -0.003340  -0.003335   0.004080   5.166226
     7  H   -0.032626   0.004079  -0.000037  -0.000037  -0.000103   0.397462
     8  H   -0.032626  -0.003339  -0.000190   0.002090  -0.000037   0.397460
     9  H   -0.032626  -0.003334   0.002089  -0.000190  -0.000037   0.397461
    10  C    0.187166  -0.061870  -0.003334   0.004079  -0.003339  -0.061870
    11  H   -0.032626  -0.003336  -0.000190  -0.000037   0.002090   0.004079
    12  H   -0.032626   0.004080  -0.000037  -0.000103  -0.000037  -0.003338
    13  H   -0.032626  -0.003340   0.002089  -0.000037  -0.000189  -0.003334
    14  C    0.187166  -0.061870   0.004080  -0.003343  -0.003331  -0.061870
    15  H   -0.032626  -0.003335  -0.000038  -0.000188   0.002087   0.004080
    16  H   -0.032626  -0.003339  -0.000037   0.002092  -0.000192  -0.003335
    17  H   -0.032626   0.004079  -0.000103  -0.000038  -0.000037  -0.003339
               7          8          9         10         11         12
     1  N   -0.032626  -0.032626  -0.032626   0.187166  -0.032626  -0.032626
     2  C    0.004079  -0.003339  -0.003334  -0.061870  -0.003336   0.004080
     3  H   -0.000037  -0.000190   0.002089  -0.003334  -0.000190  -0.000037
     4  H   -0.000037   0.002090  -0.000190   0.004079  -0.000037  -0.000103
     5  H   -0.000103  -0.000037  -0.000037  -0.003339   0.002090  -0.000037
     6  C    0.397462   0.397460   0.397461  -0.061870   0.004079  -0.003338
     7  H    0.426629  -0.018912  -0.018911  -0.003335  -0.000037   0.002089
     8  H   -0.018912   0.426626  -0.018913   0.004080  -0.000103  -0.000037
     9  H   -0.018911  -0.018913   0.426628  -0.003340  -0.000037  -0.000189
    10  C   -0.003335   0.004080  -0.003340   5.166226   0.397462   0.397460
    11  H   -0.000037  -0.000103  -0.000037   0.397462   0.426630  -0.018912
    12  H    0.002089  -0.000037  -0.000189   0.397460  -0.018912   0.426626
    13  H   -0.000190  -0.000037   0.002090   0.397461  -0.018911  -0.018914
    14  C   -0.003343  -0.003331   0.004079  -0.061870  -0.003343  -0.003331
    15  H   -0.000037  -0.000037  -0.000103  -0.003339   0.002092  -0.000192
    16  H   -0.000188   0.002087  -0.000038   0.004079  -0.000038  -0.000037
    17  H    0.002092  -0.000192  -0.000037  -0.003335  -0.000187   0.002087
              13         14         15         16         17
     1  N   -0.032626   0.187166  -0.032626  -0.032626  -0.032626
     2  C   -0.003340  -0.061870  -0.003335  -0.003339   0.004079
     3  H    0.002089   0.004080  -0.000038  -0.000037  -0.000103
     4  H   -0.000037  -0.003343  -0.000188   0.002092  -0.000038
     5  H   -0.000189  -0.003331   0.002087  -0.000192  -0.000037
     6  C   -0.003334  -0.061870   0.004080  -0.003335  -0.003339
     7  H   -0.000190  -0.003343  -0.000037  -0.000188   0.002092
     8  H   -0.000037  -0.003331  -0.000037   0.002087  -0.000192
     9  H    0.002090   0.004079  -0.000103  -0.000038  -0.000037
    10  C    0.397461  -0.061870  -0.003339   0.004079  -0.003335
    11  H   -0.018911  -0.003343   0.002092  -0.000038  -0.000187
    12  H   -0.018914  -0.003331  -0.000192  -0.000037   0.002087
    13  H    0.426628   0.004079  -0.000037  -0.000103  -0.000038
    14  C    0.004079   5.166226   0.397461   0.397461   0.397461
    15  H   -0.000037   0.397461   0.426628  -0.018912  -0.018912
    16  H   -0.000103   0.397461  -0.018912   0.426628  -0.018912
    17  H   -0.000038   0.397461  -0.018912  -0.018912   0.426628
 Mulliken charges:
               1
     1  N   -0.535385
     2  C   -0.352382
     3  H    0.245410
     4  H    0.245406
     5  H    0.245413
     6  C   -0.352382
     7  H    0.245406
     8  H    0.245413
     9  H    0.245409
    10  C   -0.352382
    11  H    0.245406
    12  H    0.245413
    13  H    0.245409
    14  C   -0.352382
    15  H    0.245410
    16  H    0.245409
    17  H    0.245409
 Sum of Mulliken charges =   1.00000
 Mulliken charges with hydrogens summed into heavy atoms:
               1
     1  N   -0.535385
     2  C    0.383846
     6  C    0.383846
    10  C    0.383846
    14  C    0.383846
 Electronic spatial extent (au):  <R**2>=            430.8899
 Charge=              1.0000 electrons
 Dipole moment (field-independent basis, Debye):
    X=              0.0000    Y=              0.0000    Z=              0.0000  Tot=              0.0000
 Quadrupole moment (field-independent basis, Debye-Ang):
   XX=            -26.4930   YY=            -26.4930   ZZ=            -26.4930
   XY=              0.0000   XZ=              0.0000   YZ=              0.0000
 Traceless Quadrupole moment (field-independent basis, Debye-Ang):
   XX=              0.0000   YY=              0.0000   ZZ=              0.0000
   XY=              0.0000   XZ=              0.0000   YZ=              0.0000
 Octapole moment (field-independent basis, Debye-Ang**2):
  XXX=              0.9680  YYY=              0.7201  ZZZ=              0.1675  XYY=             -0.4374
  XXY=             -0.0988  XXZ=              0.1138  XZZ=             -0.5306  YZZ=             -0.6213
  YYZ=             -0.2814  XYZ=              0.0164
 Hexadecapole moment (field-independent basis, Debye-Ang**3):
 XXXX=           -162.9468 YYYY=           -165.1853 ZZZZ=           -166.3460 XXXY=             -0.6229
 XXXZ=              0.6091 YYYX=             -3.5923 YYYZ=             -0.4350 ZZZX=             -2.0358
 ZZZY=              0.7785 XXYY=            -58.9566 XXZZ=            -57.7960 YYZZ=            -55.5575
 XXYZ=             -0.3434 YYXZ=              1.4267 ZZXY=              4.2152
 N-N= 2.181374628922D+02 E-N=-9.215081877749D+02  KE= 2.128973744263D+02
 There are a total of      133282 grid points.
 ElSum from          density=       42.0000179792
 ElSum from atomic densities=       43.0000648072
 Hirshfeld populations at iteration   1 (CA, CB, DipXYZ):
               1          2          3          4          5
     1  N    3.474716   3.474716   0.000009   0.000003   0.000032
     2  C    2.987256   2.987256   0.000586   0.000001   0.000039
     3  H    0.464684   0.464684   0.071895   0.090083   0.127979
     4  H    0.464685   0.464685   0.065422  -0.157648   0.023040
     5  H    0.464686   0.464686   0.085003   0.056536  -0.138715
     6  C    2.987263   2.987263  -0.000241  -0.000184   0.000515
     7  H    0.464687   0.464687  -0.172069   0.001388   0.007345
     8  H    0.464687   0.464687   0.038372  -0.163456   0.038412
     9  H    0.464686   0.464686   0.044852   0.084276   0.143351
    10  C    2.987270   2.987270  -0.000153   0.000594  -0.000101
    11  H    0.464687   0.464687   0.060275   0.075938  -0.142353
    12  H    0.464687   0.464687  -0.169769   0.026579  -0.011720
    13  H    0.464687   0.464687   0.047128   0.109465   0.124341
    14  C    2.987268   2.987268  -0.000191  -0.000350  -0.000464
    15  H    0.464687   0.464687   0.059265   0.046966  -0.154746
    16  H    0.464686   0.464686   0.040173  -0.167340   0.006904
    17  H    0.464687   0.464687  -0.170551  -0.002795  -0.023845
       Tot  21.000009  21.000009   0.000005   0.000057   0.000014

 Dip from Atomic Chgs              0.000094  -0.000033   0.000038
         Total Dipole              0.000099   0.000024   0.000053

 Hirshfeld charges, spin densities, dipoles, and CM5 charges using IRadAn=      4:
              Q-H        S-H        Dx         Dy         Dz        Q-CM5   
     1  N    0.050568   0.000000   0.000009   0.000003   0.000032  -0.319890
     2  C    0.025488   0.000000   0.000586   0.000001   0.000039  -0.077808
     3  H    0.070632   0.000000   0.071895   0.090083   0.127979   0.135935
     4  H    0.070629   0.000000   0.065422  -0.157648   0.023040   0.135933
     5  H    0.070628   0.000000   0.085003   0.056536  -0.138715   0.135932
     6  C    0.025474   0.000000  -0.000241  -0.000184   0.000515  -0.077822
     7  H    0.070626   0.000000  -0.172069   0.001388   0.007345   0.135929
     8  H    0.070626   0.000000   0.038372  -0.163456   0.038412   0.135929
     9  H    0.070628   0.000000   0.044852   0.084276   0.143351   0.135931
    10  C    0.025461   0.000000  -0.000153   0.000594  -0.000101  -0.077835
    11  H    0.070625   0.000000   0.060275   0.075938  -0.142353   0.135929
    12  H    0.070626   0.000000  -0.169769   0.026579  -0.011720   0.135929
    13  H    0.070626   0.000000   0.047128   0.109465   0.124341   0.135930
    14  C    0.025465   0.000000  -0.000191  -0.000350  -0.000464  -0.077831
    15  H    0.070626   0.000000   0.059265   0.046966  -0.154746   0.135929
    16  H    0.070629   0.000000   0.040173  -0.167340   0.006904   0.135932
    17  H    0.070627   0.000000  -0.170551  -0.002795  -0.023845   0.135930
       Tot   0.999982   0.000000   0.000005   0.000057   0.000014   0.999982
 Hirshfeld charges with hydrogens summed into heavy atoms:
              Q-H       Q-CM5   
     1  N    0.050568  -0.319890
     2  C    0.237377   0.329992
     6  C    0.237353   0.329968
    10  C    0.237338   0.329953
    14  C    0.237346   0.329960
 
 EQQ= 0.000000000000E+00 EQD= 0.000000000000E+00 EDD= 0.102420800947E-03
 EQQ+QD+DD= 0.102420800947E-03
 
 No NMR shielding tensors so no spin-rotation constants.
 Leave Link  601 at Fri Mar 11 14:10:41 2016, MaxMem=  1048576000 cpu:        11.4
 (Enter /usr/local/g09/l701.exe)
 Compute integral first derivatives.
 ... and contract with generalized density number  0.
 Leave Link  701 at Fri Mar 11 14:10:43 2016, MaxMem=  1048576000 cpu:         4.2
 (Enter /usr/local/g09/l702.exe)
 L702 exits ... SP integral derivatives will be done elsewhere.
 Leave Link  702 at Fri Mar 11 14:10:44 2016, MaxMem=  1048576000 cpu:         0.1
 (Enter /usr/local/g09/l703.exe)
 Compute integral first derivatives, UseDBF=F ICtDFT=           0.
 Integral derivatives from FoFJK, PRISM(SPDF).
 Calling FoFJK, ICntrl=      2127 FMM=F ISym2X=0 I1Cent= 0 IOpClX= 0 NMat=1 NMatS=1 NMatT=0.
 FoFJK:  IHMeth= 1 ICntrl=    2127 DoSepK=F KAlg= 0 I1Cent=   0 FoldK=F
 IRaf=         0 NMat=   1 IRICut=       1 DoRegI=T DoRafI=F ISym2E= 0.
 FoFCou: FMM=F IPFlag=           0 FMFlag=      100000 FMFlg1=         800
         NFxFlg=           0 DoJE=F BraDBF=F KetDBF=F FulRan=T
         wScrn=  0.000000 ICntrl=    2127 IOpCl=  0 I1Cent=           0 NGrid=           0
         NMat0=    1 NMatS0=      1 NMatT0=    0 NMatD0=    1 NMtDS0=    0 NMtDT0=    0
 Symmetry not used in FoFCou.
 Leave Link  703 at Fri Mar 11 14:10:46 2016, MaxMem=  1048576000 cpu:         4.2
 (Enter /usr/local/g09/l716.exe)
 Dipole        = 7.26962934D-10 5.15304635D-08-3.19930620D-08
 ***** Axes restored to original set *****
 -------------------------------------------------------------------
 Center     Atomic                   Forces (Hartrees/Bohr)
 Number     Number              X              Y              Z
 -------------------------------------------------------------------
      1        7           0.000000100    0.000000023   -0.000000016
      2        6           0.003654057    0.005171725   -0.008946067
      3        1           0.007500322   -0.000151097    0.000266591
      4        1          -0.002641535   -0.003739761   -0.005945513
      5        1          -0.002647192    0.007021227    0.000264607
      6        6           0.003652912   -0.010333784   -0.000005791
      7        1          -0.002641680   -0.003279140    0.006211660
      8        1          -0.002647439   -0.003281508   -0.006212959
      9        1           0.007499929    0.000306246   -0.000002567
     10        6           0.003653514    0.005161430    0.008952235
     11        1          -0.002641568    0.007018855   -0.000265908
     12        1          -0.002647332   -0.003739844    0.005948405
     13        1           0.007500100   -0.000155409   -0.000264109
     14        6          -0.010960489    0.000000619   -0.000000333
     15        1          -0.002211182    0.007173498    0.000001171
     16        1          -0.002211300   -0.003585523   -0.006212876
     17        1          -0.002211218   -0.003587557    0.006211469
 -------------------------------------------------------------------
 Cartesian Forces:  Max     0.010960489 RMS     0.004762335
 Leave Link  716 at Fri Mar 11 14:10:47 2016, MaxMem=  1048576000 cpu:         0.2
 (Enter /usr/local/g09/l103.exe)

 GradGradGradGradGradGradGradGradGradGradGradGradGradGradGradGradGradGrad
 Berny optimization.
 FormGI is forming the generalized inverse of G from B-inverse, IUseBI=4.
 Internal  Forces:  Max     0.017594189 RMS     0.004833233
 Search for a local minimum.
 Step number   1 out of a maximum of   92
 All quantities printed in internal units (Hartrees-Bohrs-Radians)
 RMS Force = .48332D-02 SwitMx=.10000D-02 MixMth= 1
 Mixed Optimization -- RFO/linear search
 Second derivative matrix not updated -- first step.
 ITU=  0
     Eigenvalues ---    0.00766   0.00766   0.00766   0.00766   0.05172
     Eigenvalues ---    0.05172   0.05172   0.06065   0.06065   0.06065
     Eigenvalues ---    0.06065   0.06065   0.06065   0.06065   0.06065
     Eigenvalues ---    0.14614   0.14614   0.16000   0.16000   0.16000
     Eigenvalues ---    0.16000   0.16000   0.16000   0.16000   0.16000
     Eigenvalues ---    0.16000   0.16000   0.16000   0.16000   0.35740
     Eigenvalues ---    0.35740   0.35740   0.35740   0.37230   0.37230
     Eigenvalues ---    0.37230   0.37230   0.37230   0.37230   0.37230
     Eigenvalues ---    0.37230   0.37230   0.37230   0.37230   0.37230
 RFO step:  Lambda=-5.21666042D-03 EMin= 7.65814442D-03
 Linear search not attempted -- first point.
 Iteration  1 RMS(Cart)=  0.02371821 RMS(Int)=  0.00001124
 Iteration  2 RMS(Cart)=  0.00001595 RMS(Int)=  0.00000101
 Iteration  3 RMS(Cart)=  0.00000000 RMS(Int)=  0.00000101
 ITry= 1 IFail=0 DXMaxC= 5.36D-02 DCOld= 1.00D+10 DXMaxT= 3.00D-01 DXLimC= 3.00D+00 Rises=F
 Variable       Old X    -DE/DX   Delta X   Delta X   Delta X     New X
                                 (Linear)    (Quad)   (Total)
    R1        2.77790   0.01759   0.00000   0.04852   0.04852   2.82642
    R2        2.77790   0.01759   0.00000   0.04852   0.04852   2.82642
    R3        2.77790   0.01759   0.00000   0.04852   0.04852   2.82642
    R4        2.77790   0.01759   0.00000   0.04852   0.04852   2.82642
    R5        2.02201   0.00750   0.00000   0.01987   0.01987   2.04187
    R6        2.02201   0.00750   0.00000   0.01986   0.01986   2.04187
    R7        2.02201   0.00750   0.00000   0.01987   0.01987   2.04188
    R8        2.02201   0.00750   0.00000   0.01986   0.01986   2.04187
    R9        2.02201   0.00750   0.00000   0.01987   0.01987   2.04188
   R10        2.02201   0.00750   0.00000   0.01987   0.01987   2.04187
   R11        2.02201   0.00750   0.00000   0.01986   0.01986   2.04187
   R12        2.02201   0.00750   0.00000   0.01987   0.01987   2.04188
   R13        2.02201   0.00750   0.00000   0.01987   0.01987   2.04187
   R14        2.02201   0.00750   0.00000   0.01987   0.01987   2.04187
   R15        2.02201   0.00750   0.00000   0.01987   0.01987   2.04187
   R16        2.02201   0.00750   0.00000   0.01987   0.01987   2.04187
    A1        1.91063   0.00000   0.00000   0.00000   0.00000   1.91063
    A2        1.91063   0.00000   0.00000   0.00000   0.00000   1.91063
    A3        1.91063   0.00000   0.00000   0.00000   0.00000   1.91063
    A4        1.91063   0.00000   0.00000   0.00000   0.00000   1.91063
    A5        1.91063   0.00000   0.00000   0.00000   0.00000   1.91063
    A6        1.91063   0.00000   0.00000   0.00000   0.00000   1.91063
    A7        1.91063  -0.00031   0.00000  -0.00188  -0.00188   1.90876
    A8        1.91063  -0.00031   0.00000  -0.00187  -0.00187   1.90876
    A9        1.91063  -0.00031   0.00000  -0.00188  -0.00188   1.90875
   A10        1.91063   0.00031   0.00000   0.00187   0.00187   1.91251
   A11        1.91063   0.00031   0.00000   0.00187   0.00187   1.91251
   A12        1.91063   0.00031   0.00000   0.00187   0.00187   1.91251
   A13        1.91063  -0.00031   0.00000  -0.00187  -0.00187   1.90876
   A14        1.91063  -0.00031   0.00000  -0.00188  -0.00188   1.90875
   A15        1.91063  -0.00031   0.00000  -0.00187  -0.00188   1.90876
   A16        1.91063   0.00031   0.00000   0.00187   0.00187   1.91251
   A17        1.91063   0.00031   0.00000   0.00188   0.00187   1.91251
   A18        1.91063   0.00031   0.00000   0.00187   0.00187   1.91251
   A19        1.91063  -0.00031   0.00000  -0.00187  -0.00187   1.90876
   A20        1.91063  -0.00031   0.00000  -0.00188  -0.00188   1.90875
   A21        1.91063  -0.00031   0.00000  -0.00187  -0.00188   1.90876
   A22        1.91063   0.00031   0.00000   0.00187   0.00187   1.91251
   A23        1.91063   0.00031   0.00000   0.00188   0.00187   1.91251
   A24        1.91063   0.00031   0.00000   0.00187   0.00187   1.91251
   A25        1.91063  -0.00031   0.00000  -0.00187  -0.00188   1.90876
   A26        1.91063  -0.00031   0.00000  -0.00187  -0.00188   1.90876
   A27        1.91063  -0.00031   0.00000  -0.00187  -0.00188   1.90876
   A28        1.91063   0.00031   0.00000   0.00187   0.00187   1.91251
   A29        1.91063   0.00031   0.00000   0.00187   0.00187   1.91251
   A30        1.91063   0.00031   0.00000   0.00187   0.00187   1.91251
    D1       -1.04722   0.00000   0.00000  -0.00012  -0.00012  -1.04733
    D2        1.04718   0.00000   0.00000  -0.00011  -0.00011   1.04707
    D3        3.14157   0.00000   0.00000  -0.00011  -0.00011   3.14146
    D4        1.04718   0.00000   0.00000  -0.00012  -0.00012   1.04706
    D5        3.14157   0.00000   0.00000  -0.00011  -0.00011   3.14146
    D6       -1.04722   0.00000   0.00000  -0.00011  -0.00011  -1.04733
    D7        3.14157   0.00000   0.00000  -0.00012  -0.00012   3.14146
    D8       -1.04722   0.00000   0.00000  -0.00011  -0.00011  -1.04733
    D9        1.04718   0.00000   0.00000  -0.00011  -0.00011   1.04707
   D10        3.14159   0.00000   0.00000  -0.00012  -0.00012   3.14147
   D11       -1.04720   0.00000   0.00000  -0.00012  -0.00012  -1.04732
   D12        1.04719   0.00000   0.00000  -0.00012  -0.00012   1.04707
   D13        1.04719   0.00000   0.00000  -0.00012  -0.00012   1.04708
   D14        3.14159   0.00000   0.00000  -0.00012  -0.00012   3.14147
   D15       -1.04720   0.00000   0.00000  -0.00012  -0.00012  -1.04732
   D16       -1.04720   0.00000   0.00000  -0.00012  -0.00012  -1.04732
   D17        1.04719   0.00000   0.00000  -0.00012  -0.00012   1.04708
   D18        3.14159   0.00000   0.00000  -0.00012  -0.00012   3.14147
   D19        1.04700   0.00000   0.00000  -0.00004  -0.00004   1.04696
   D20        3.14140   0.00000   0.00000  -0.00004  -0.00004   3.14136
   D21       -1.04739   0.00000   0.00000  -0.00005  -0.00005  -1.04744
   D22        3.14140   0.00000   0.00000  -0.00004  -0.00004   3.14135
   D23       -1.04739   0.00000   0.00000  -0.00004  -0.00004  -1.04744
   D24        1.04700   0.00000   0.00000  -0.00005  -0.00005   1.04695
   D25       -1.04739   0.00000   0.00000  -0.00004  -0.00004  -1.04744
   D26        1.04700   0.00000   0.00000  -0.00004  -0.00004   1.04696
   D27        3.14140   0.00000   0.00000  -0.00005  -0.00005   3.14135
   D28       -1.04914   0.00001   0.00000   0.00063   0.00063  -1.04851
   D29        1.04526   0.00001   0.00000   0.00063   0.00063   1.04588
   D30        3.13965   0.00001   0.00000   0.00063   0.00063   3.14028
   D31        3.13965   0.00001   0.00000   0.00063   0.00063   3.14028
   D32       -1.04914   0.00001   0.00000   0.00063   0.00063  -1.04851
   D33        1.04526   0.00001   0.00000   0.00063   0.00063   1.04589
   D34        1.04526   0.00001   0.00000   0.00063   0.00063   1.04589
   D35        3.13965   0.00001   0.00000   0.00063   0.00063   3.14028
   D36       -1.04914   0.00001   0.00000   0.00063   0.00063  -1.04851
         Item               Value     Threshold  Converged?
 Maximum Force            0.017594     0.000450     NO 
 RMS     Force            0.004833     0.000300     NO 
 Maximum Displacement     0.053638     0.001800     NO 
 RMS     Displacement     0.023707     0.001200     NO 
 Predicted change in Energy=-2.645476D-03
 Lowest energy point so far.  Saving SCF results.
 GradGradGradGradGradGradGradGradGradGradGradGradGradGradGradGradGradGrad

 Leave Link  103 at Fri Mar 11 14:11:00 2016, MaxMem=  1048576000 cpu:        34.9
 (Enter /usr/local/g09/l202.exe)
                          Input orientation:                          
 ---------------------------------------------------------------------
 Center     Atomic      Atomic             Coordinates (Angstroms)
 Number     Number       Type             X           Y           Z
 ---------------------------------------------------------------------
      1          7           0       -0.662252   -0.099338    0.000000
      2          6           0       -0.163678    0.605785   -1.221176
      3          1           0        0.916833    0.604872   -1.219348
      4          1           0       -0.524697    0.095056   -2.102268
      5          1           0       -0.524901    1.624132   -1.219429
      6          6           0       -0.163716   -1.509482   -0.000071
      7          1           0       -0.524748   -2.017159    0.882778
      8          1           0       -0.524954   -2.017130   -0.882860
      9          1           0        0.916795   -1.507473   -0.000197
     10          6           0       -0.163685    0.605659    1.221251
     11          1           0       -0.524592    1.624112    1.219432
     12          1           0       -0.525024    0.095044    2.102285
     13          1           0        0.916826    0.604414    1.219622
     14          6           0       -2.157927   -0.099313   -0.000004
     15          1           0       -2.516169    0.920084    0.001385
     16          1           0       -2.516192   -0.607799   -0.883518
     17          1           0       -2.516197   -0.610206    0.882118
 ---------------------------------------------------------------------
                    Distance matrix (angstroms):
                    1          2          3          4          5
     1  N    0.000000
     2  C    1.495675   0.000000
     3  H    2.115710   1.080513   0.000000
     4  H    2.115713   1.080510   1.765636   0.000000
     5  H    2.115708   1.080516   1.765640   1.765638   0.000000
     6  C    1.495675   2.442428   2.669217   2.669098   3.381837
     7  H    2.115713   3.381838   3.656793   3.656769   4.204554
     8  H    2.115708   2.669206   3.011124   2.438911   3.656783
     9  H    2.115711   2.669095   2.438920   3.010764   3.656769
    10  C    1.495675   2.442428   2.669090   3.381838   2.669210
    11  H    2.115713   2.669048   3.010681   3.656734   2.438861
    12  H    2.115708   3.381837   3.656791   4.204554   3.656760
    13  H    2.115710   2.669267   2.438969   3.656828   3.011207
    14  C    1.495676   2.442428   3.381838   2.669220   2.669089
    15  H    2.115711   2.669766   3.657192   3.011974   2.439512
    16  H    2.115711   2.668543   3.656366   2.438321   3.009915
    17  H    2.115711   3.381838   4.204554   3.656505   3.657052
                    6          7          8          9         10
     6  C    0.000000
     7  H    1.080510   0.000000
     8  H    1.080516   1.765638   0.000000
     9  H    1.080513   1.765636   1.765640   0.000000
    10  C    2.442428   2.669102   3.381837   2.669213   0.000000
    11  H    3.381838   3.656800   4.204554   3.656762   1.080510
    12  H    2.669260   2.438974   3.656825   3.011201   1.080516
    13  H    2.669041   3.010688   3.656727   2.438856   1.080513
    14  C    2.442428   2.669215   2.669093   3.381838   2.442428
    15  H    3.381838   3.656502   3.657055   4.204554   2.668542
    16  H    2.669767   3.011968   2.439517   3.657194   3.381838
    17  H    2.668543   2.438316   3.009922   3.656364   2.669767
                   11         12         13         14         15
    11  H    0.000000
    12  H    1.765638   0.000000
    13  H    1.765636   1.765640   0.000000
    14  C    2.669270   2.669039   3.381838   0.000000
    15  H    2.438375   3.009839   3.656392   1.080513   0.000000
    16  H    3.656541   3.657015   4.204554   1.080513   1.765638
    17  H    3.012051   2.439458   3.657166   1.080513   1.765638
                   16         17
    16  H    0.000000
    17  H    1.765638   0.000000
 This structure is nearly, but not quite of a higher symmetry.
 Consider Symm=Loose if the higher symmetry is desired.
 Stoichiometry    C4H12N(1+)
 Framework group  C1[X(C4H12N)]
 Deg. of freedom    45
 Full point group                 C1      NOp   1
 RotChk:  IX=0 Diff= 1.77D+00
 Largest Abelian subgroup         C1      NOp   1
 Largest concise Abelian subgroup C1      NOp   1
                         Standard orientation:                         
 ---------------------------------------------------------------------
 Center     Atomic      Atomic             Coordinates (Angstroms)
 Number     Number       Type             X           Y           Z
 ---------------------------------------------------------------------
      1          7           0        0.000000    0.000000    0.000000
      2          6           0        0.455607   -1.195157   -0.775286
      3          1           0        1.526049   -1.145545   -0.913855
      4          1           0        0.202246   -2.093349   -0.230712
      5          1           0       -0.034081   -1.205395   -1.738413
      6          6           0        0.676341    0.016449    1.333918
      7          1           0        0.346107    0.880470    1.892412
      8          1           0        0.422438   -0.883436    1.875448
      9          1           0        1.746489    0.064120    1.192433
     10          6           0        0.349739    1.244861   -0.751697
     11          1           0       -0.139496    1.231075   -1.715004
     12          1           0        0.019659    2.107043   -0.190266
     13          1           0        1.420374    1.291017   -0.889969
     14          6           0       -1.481687   -0.066154    0.193064
     15          1           0       -1.968542   -0.076614   -0.771493
     16          1           0       -1.732505   -0.966636    0.735034
     17          1           0       -1.808737    0.797250    0.754384
 ---------------------------------------------------------------------
 Rotational constants (GHZ):      4.6935381      4.6935372      4.6935371
 Leave Link  202 at Fri Mar 11 14:11:00 2016, MaxMem=  1048576000 cpu:         1.3
 (Enter /usr/local/g09/l301.exe)
 Standard basis: 6-31G(d) (6D, 7F)
 Ernie: Thresh=  0.10000D-02 Tol=  0.10000D-05 Strict=F.
 There are    99 symmetry adapted cartesian basis functions of A   symmetry.
 There are    99 symmetry adapted basis functions of A   symmetry.
    99 basis functions,   188 primitive gaussians,    99 cartesian basis functions
    21 alpha electrons       21 beta electrons
       nuclear repulsion energy       214.8621150581 Hartrees.
 IExCor=    0 DFT=F Ex=HF Corr=None ExCW=0 ScaHFX=  1.000000
 ScaDFX=  1.000000  1.000000  1.000000  1.000000 ScalE2=  1.000000  1.000000
 IRadAn=      0 IRanWt=     -1 IRanGd=            0 ICorTp=0 IEmpDi=  4
 NAtoms=   17 NActive=   17 NUniq=   17 SFac= 1.00D+00 NAtFMM=   60 NAOKFM=F Big=F
 Integral buffers will be    131072 words long.
 Raffenetti 1 integral format.
 Two-electron integral symmetry is turned on.
 Leave Link  301 at Fri Mar 11 14:11:01 2016, MaxMem=  1048576000 cpu:         0.3
 (Enter /usr/local/g09/l302.exe)
 NPDir=0 NMtPBC=     1 NCelOv=     1 NCel=       1 NClECP=     1 NCelD=      1
         NCelK=      1 NCelE2=     1 NClLst=     1 CellRange=     0.0.
 One-electron integrals computed using PRISM.
 NBasis=    99 RedAO= T EigKep=  5.96D-03  NBF=    99
 NBsUse=    99 1.00D-06 EigRej= -1.00D+00 NBFU=    99
 Leave Link  302 at Fri Mar 11 14:11:05 2016, MaxMem=  1048576000 cpu:        11.4
 (Enter /usr/local/g09/l303.exe)
 DipDrv:  MaxL=1.
 Leave Link  303 at Fri Mar 11 14:11:08 2016, MaxMem=  1048576000 cpu:         6.7
 (Enter /usr/local/g09/l401.exe)
 Initial guess from the checkpoint file:  "Ammonium.chk"
 B after Tr=     0.000000    0.000000    0.000000
         Rot=    0.781157    0.173548   -0.457255    0.388063 Ang=  77.27 deg.
 Guess basis will be translated and rotated to current coordinates.
 JPrj=2 DoOrth=T DoCkMO=T.
 Generating alternative initial guess.
 ExpMin= 1.61D-01 ExpMax= 4.17D+03 ExpMxC= 6.27D+02 IAcc=1 IRadAn=         1 AccDes= 0.00D+00
 Harris functional with IExCor=  205 and IRadAn=       1 diagonalized for initial guess.
 HarFok:  IExCor=  205 AccDes= 0.00D+00 IRadAn=         1 IDoV= 1 UseB2=F ITyADJ=14
 ICtDFT=  3500011 ScaDFX=  1.000000  1.000000  1.000000  1.000000
 FoFCou: FMM=F IPFlag=           0 FMFlag=      100000 FMFlg1=           0
         NFxFlg=           0 DoJE=T BraDBF=F KetDBF=T FulRan=T
         wScrn=  0.000000 ICntrl=     500 IOpCl=  0 I1Cent=   200000004 NGrid=           0
         NMat0=    1 NMatS0=      1 NMatT0=    0 NMatD0=    1 NMtDS0=    0 NMtDT0=    0
 Petite list used in FoFCou.
 Harris En= -213.193318575728    
 Leave Link  401 at Fri Mar 11 14:11:20 2016, MaxMem=  1048576000 cpu:        41.9
 (Enter /usr/local/g09/l502.exe)
 Closed shell SCF:
 Using DIIS extrapolation, IDIIS=  1040.
 Integral symmetry usage will be decided dynamically.
 Keep R1 ints in memory in canonical form, NReq=13198514.
 IVT=       49912 IEndB=       49912 NGot=  1048576000 MDV=  1036272364
 LenX=  1036272364 LenY=  1036262122
 Requested convergence on RMS density matrix=1.00D-08 within 128 cycles.
 Requested convergence on MAX density matrix=1.00D-06.
 Requested convergence on             energy=1.00D-06.
 No special actions if energy rises.
 FoFCou: FMM=F IPFlag=           0 FMFlag=           0 FMFlg1=           0
         NFxFlg=           0 DoJE=F BraDBF=F KetDBF=F FulRan=T
         wScrn=  0.000000 ICntrl=     600 IOpCl=  0 I1Cent=           0 NGrid=           0
         NMat0=    1 NMatS0=   4950 NMatT0=    0 NMatD0=    1 NMtDS0=    0 NMtDT0=    0
 Symmetry not used in FoFCou.

 Cycle   1  Pass 1  IDiag  1:
 E= -212.684306461788    
 DIIS: error= 3.07D-03 at cycle   1 NSaved=   1.
 NSaved= 1 IEnMin= 1 EnMin= -212.684306461788     IErMin= 1 ErrMin= 3.07D-03
 ErrMax= 3.07D-03  0.00D+00 EMaxC= 1.00D-01 BMatC= 6.99D-04 BMatP= 6.99D-04
 IDIUse=3 WtCom= 9.69D-01 WtEn= 3.07D-02
 Coeff-Com:  0.100D+01
 Coeff-En:   0.100D+01
 Coeff:      0.100D+01
 Gap=     1.813 Goal=   None    Shift=    0.000
 GapD=    1.813 DampG=2.000 DampE=1.000 DampFc=2.0000 IDamp=-1.
 RMSDP=3.07D-04 MaxDP=4.54D-03              OVMax= 4.98D-03

 Cycle   2  Pass 1  IDiag  1:
 E= -212.684978610666     Delta-E=       -0.000672148878 Rises=F Damp=F
 DIIS: error= 8.32D-04 at cycle   2 NSaved=   2.
 NSaved= 2 IEnMin= 2 EnMin= -212.684978610666     IErMin= 2 ErrMin= 8.32D-04
 ErrMax= 8.32D-04  0.00D+00 EMaxC= 1.00D-01 BMatC= 7.70D-05 BMatP= 6.99D-04
 IDIUse=3 WtCom= 9.92D-01 WtEn= 8.32D-03
 Coeff-Com:  0.142D+00 0.858D+00
 Coeff-En:   0.000D+00 0.100D+01
 Coeff:      0.141D+00 0.859D+00
 Gap=     0.742 Goal=   None    Shift=    0.000
 RMSDP=8.78D-05 MaxDP=1.55D-03 DE=-6.72D-04 OVMax= 2.12D-03

 Cycle   3  Pass 1  IDiag  1:
 E= -212.685048098219     Delta-E=       -0.000069487554 Rises=F Damp=F
 DIIS: error= 2.88D-04 at cycle   3 NSaved=   3.
 NSaved= 3 IEnMin= 3 EnMin= -212.685048098219     IErMin= 3 ErrMin= 2.88D-04
 ErrMax= 2.88D-04  0.00D+00 EMaxC= 1.00D-01 BMatC= 9.89D-06 BMatP= 7.70D-05
 IDIUse=3 WtCom= 9.97D-01 WtEn= 2.88D-03
 Coeff-Com: -0.653D-01 0.164D+00 0.901D+00
 Coeff-En:   0.000D+00 0.000D+00 0.100D+01
 Coeff:     -0.651D-01 0.164D+00 0.901D+00
 Gap=     0.741 Goal=   None    Shift=    0.000
 RMSDP=3.15D-05 MaxDP=7.01D-04 DE=-6.95D-05 OVMax= 5.87D-04

 Cycle   4  Pass 1  IDiag  1:
 E= -212.685057294379     Delta-E=       -0.000009196160 Rises=F Damp=F
 DIIS: error= 7.08D-05 at cycle   4 NSaved=   4.
 NSaved= 4 IEnMin= 4 EnMin= -212.685057294379     IErMin= 4 ErrMin= 7.08D-05
 ErrMax= 7.08D-05  0.00D+00 EMaxC= 1.00D-01 BMatC= 4.77D-07 BMatP= 9.89D-06
 IDIUse=1 WtCom= 1.00D+00 WtEn= 0.00D+00
 Coeff-Com: -0.219D-01 0.119D-01 0.240D+00 0.770D+00
 Coeff:     -0.219D-01 0.119D-01 0.240D+00 0.770D+00
 Gap=     0.741 Goal=   None    Shift=    0.000
 RMSDP=5.38D-06 MaxDP=1.25D-04 DE=-9.20D-06 OVMax= 1.43D-04

 Cycle   5  Pass 1  IDiag  1:
 E= -212.685057718212     Delta-E=       -0.000000423832 Rises=F Damp=F
 DIIS: error= 9.82D-06 at cycle   5 NSaved=   5.
 NSaved= 5 IEnMin= 5 EnMin= -212.685057718212     IErMin= 5 ErrMin= 9.82D-06
 ErrMax= 9.82D-06  0.00D+00 EMaxC= 1.00D-01 BMatC= 1.01D-08 BMatP= 4.77D-07
 IDIUse=1 WtCom= 1.00D+00 WtEn= 0.00D+00
 Coeff-Com:  0.419D-02-0.108D-01-0.592D-01-0.318D-01 0.110D+01
 Coeff:      0.419D-02-0.108D-01-0.592D-01-0.318D-01 0.110D+01
 Gap=     0.741 Goal=   None    Shift=    0.000
 RMSDP=1.33D-06 MaxDP=2.28D-05 DE=-4.24D-07 OVMax= 3.79D-05

 Cycle   6  Pass 1  IDiag  1:
 E= -212.685057732917     Delta-E=       -0.000000014705 Rises=F Damp=F
 DIIS: error= 2.11D-06 at cycle   6 NSaved=   6.
 NSaved= 6 IEnMin= 6 EnMin= -212.685057732917     IErMin= 6 ErrMin= 2.11D-06
 ErrMax= 2.11D-06  0.00D+00 EMaxC= 1.00D-01 BMatC= 1.68D-10 BMatP= 1.01D-08
 IDIUse=1 WtCom= 1.00D+00 WtEn= 0.00D+00
 Coeff-Com:  0.120D-03 0.593D-03-0.111D-02-0.550D-02-0.991D-01 0.111D+01
 Coeff:      0.120D-03 0.593D-03-0.111D-02-0.550D-02-0.991D-01 0.111D+01
 Gap=     0.741 Goal=   None    Shift=    0.000
 RMSDP=1.93D-07 MaxDP=4.59D-06 DE=-1.47D-08 OVMax= 4.68D-06

 Cycle   7  Pass 1  IDiag  1:
 E= -212.685057733194     Delta-E=       -0.000000000278 Rises=F Damp=F
 DIIS: error= 3.38D-07 at cycle   7 NSaved=   7.
 NSaved= 7 IEnMin= 7 EnMin= -212.685057733194     IErMin= 7 ErrMin= 3.38D-07
 ErrMax= 3.38D-07  0.00D+00 EMaxC= 1.00D-01 BMatC= 5.50D-12 BMatP= 1.68D-10
 IDIUse=1 WtCom= 1.00D+00 WtEn= 0.00D+00
 Coeff-Com: -0.925D-04 0.105D-03 0.119D-02 0.280D-02-0.824D-02-0.196D+00
 Coeff-Com:  0.120D+01
 Coeff:     -0.925D-04 0.105D-03 0.119D-02 0.280D-02-0.824D-02-0.196D+00
 Coeff:      0.120D+01
 Gap=     0.741 Goal=   None    Shift=    0.000
 RMSDP=4.82D-08 MaxDP=9.57D-07 DE=-2.78D-10 OVMax= 8.71D-07

 Cycle   8  Pass 1  IDiag  1:
 E= -212.685057733205     Delta-E=       -0.000000000010 Rises=F Damp=F
 DIIS: error= 4.01D-08 at cycle   8 NSaved=   8.
 NSaved= 8 IEnMin= 8 EnMin= -212.685057733205     IErMin= 8 ErrMin= 4.01D-08
 ErrMax= 4.01D-08  0.00D+00 EMaxC= 1.00D-01 BMatC= 9.91D-14 BMatP= 5.50D-12
 IDIUse=1 WtCom= 1.00D+00 WtEn= 0.00D+00
 Coeff-Com:  0.187D-04-0.252D-04-0.267D-03-0.465D-03 0.223D-02 0.398D-01
 Coeff-Com: -0.328D+00 0.129D+01
 Coeff:      0.187D-04-0.252D-04-0.267D-03-0.465D-03 0.223D-02 0.398D-01
 Coeff:     -0.328D+00 0.129D+01
 Gap=     0.741 Goal=   None    Shift=    0.000
 RMSDP=7.08D-09 MaxDP=1.34D-07 DE=-1.03D-11 OVMax= 1.15D-07

 SCF Done:  E(RHF) =  -212.685057733     A.U. after    8 cycles
            NFock=  8  Conv=0.71D-08     -V/T= 2.0008
 KE= 2.125048174660D+02 PE=-9.148157892154D+02 EE= 2.747637989580D+02
 Leave Link  502 at Fri Mar 11 14:11:30 2016, MaxMem=  1048576000 cpu:        31.8
 (Enter /usr/local/g09/l701.exe)
 Compute integral first derivatives.
 ... and contract with generalized density number  0.
 Leave Link  701 at Fri Mar 11 14:11:37 2016, MaxMem=  1048576000 cpu:        14.4
 (Enter /usr/local/g09/l702.exe)
 L702 exits ... SP integral derivatives will be done elsewhere.
 Leave Link  702 at Fri Mar 11 14:11:37 2016, MaxMem=  1048576000 cpu:         0.2
 (Enter /usr/local/g09/l703.exe)
 Compute integral first derivatives, UseDBF=F ICtDFT=           0.
 Integral derivatives from FoFJK, PRISM(SPDF).
 Calling FoFJK, ICntrl=      2127 FMM=F ISym2X=0 I1Cent= 0 IOpClX= 0 NMat=1 NMatS=1 NMatT=0.
 FoFJK:  IHMeth= 1 ICntrl=    2127 DoSepK=F KAlg= 0 I1Cent=   0 FoldK=F
 IRaf=         0 NMat=   1 IRICut=       1 DoRegI=T DoRafI=F ISym2E= 0.
 FoFCou: FMM=F IPFlag=           0 FMFlag=      100000 FMFlg1=         800
         NFxFlg=           0 DoJE=F BraDBF=F KetDBF=F FulRan=T
         wScrn=  0.000000 ICntrl=    2127 IOpCl=  0 I1Cent=           0 NGrid=           0
         NMat0=    1 NMatS0=      1 NMatT0=    0 NMatD0=    1 NMtDS0=    0 NMtDT0=    0
 Symmetry not used in FoFCou.
 Leave Link  703 at Fri Mar 11 14:11:38 2016, MaxMem=  1048576000 cpu:         5.1
 (Enter /usr/local/g09/l716.exe)
 Dipole        =-2.68242216D-07-1.83264710D-08 4.53697706D-08
 ***** Axes restored to original set *****
 -------------------------------------------------------------------
 Center     Atomic                   Forces (Hartrees/Bohr)
 Number     Number              X              Y              Z
 -------------------------------------------------------------------
      1        7          -0.000000041   -0.000000022   -0.000000011
      2        6           0.000967362    0.001374054   -0.002363628
      3        1          -0.000726570   -0.000523934    0.000909104
      4        1          -0.000252398   -0.000358408    0.001198402
      5        1          -0.000252678   -0.000860863    0.000907923
      6        6           0.000966038   -0.002734460   -0.000008105
      7        1          -0.000252272    0.001217087   -0.000288876
      8        1          -0.000252662    0.001216711    0.000291691
      9        1          -0.000726358    0.001049369   -0.000000877
     10        6           0.000966667    0.001359744    0.002372187
     11        1          -0.000253044   -0.000858872   -0.000909190
     12        1          -0.000251985   -0.000356228   -0.001199558
     13        1          -0.000726463   -0.000524670   -0.000908727
     14        6          -0.002900060    0.000000689   -0.000000426
     15        1           0.001231475   -0.000335223   -0.000007822
     16        1           0.001231494    0.000160773    0.000294123
     17        1           0.001231495    0.000174254   -0.000286210
 -------------------------------------------------------------------
 Cartesian Forces:  Max     0.002900060 RMS     0.001021228
 Leave Link  716 at Fri Mar 11 14:11:39 2016, MaxMem=  1048576000 cpu:         0.3
 (Enter /usr/local/g09/l103.exe)

 GradGradGradGradGradGradGradGradGradGradGradGradGradGradGradGradGradGrad
 Berny optimization.
 Using GEDIIS/GDIIS optimizer.
 FormGI is forming the generalized inverse of G from B-inverse, IUseBI=4.
 Internal  Forces:  Max     0.001077766 RMS     0.000667622
 Search for a local minimum.
 Step number   2 out of a maximum of   92
 All quantities printed in internal units (Hartrees-Bohrs-Radians)
 RMS Force = .66762D-03 SwitMx=.10000D-02 MixMth= 2
 Mixed Optimization -- En-DIIS/RFO-DIIS
 Update second derivatives using D2CorX and points    1    2
 DE= -2.42D-03 DEPred=-2.65D-03 R= 9.14D-01
 TightC=F SS=  1.41D+00  RLast= 1.19D-01 DXNew= 5.0454D-01 3.5801D-01
 Trust test= 9.14D-01 RLast= 1.19D-01 DXMaxT set to 3.58D-01
 ITU=  1  0
 Use linear search instead of GDIIS.
     Eigenvalues ---    0.00766   0.00766   0.00766   0.00766   0.05172
     Eigenvalues ---    0.05172   0.05172   0.06084   0.06084   0.06084
     Eigenvalues ---    0.06084   0.06084   0.06084   0.06084   0.06084
     Eigenvalues ---    0.14614   0.14614   0.15405   0.16000   0.16000
     Eigenvalues ---    0.16000   0.16000   0.16000   0.16000   0.16000
     Eigenvalues ---    0.16000   0.16000   0.16000   0.16000   0.35740
     Eigenvalues ---    0.35740   0.35740   0.36114   0.37230   0.37230
     Eigenvalues ---    0.37230   0.37230   0.37230   0.37230   0.37230
     Eigenvalues ---    0.37230   0.37230   0.37230   0.37230   0.40893
 RFO step:  Lambda=-1.62824912D-04 EMin= 7.65811749D-03
 Quartic linear search produced a step of -0.05343.
 Iteration  1 RMS(Cart)=  0.00529884 RMS(Int)=  0.00002230
 Iteration  2 RMS(Cart)=  0.00002144 RMS(Int)=  0.00001197
 Iteration  3 RMS(Cart)=  0.00000000 RMS(Int)=  0.00001197
 ITry= 1 IFail=0 DXMaxC= 1.38D-02 DCOld= 1.00D+10 DXMaxT= 3.58D-01 DXLimC= 3.00D+00 Rises=F
 Variable       Old X    -DE/DX   Delta X   Delta X   Delta X     New X
                                 (Linear)    (Quad)   (Total)
    R1        2.82642  -0.00079  -0.00259   0.00189  -0.00070   2.82572
    R2        2.82642  -0.00079  -0.00259   0.00189  -0.00070   2.82572
    R3        2.82642  -0.00079  -0.00259   0.00189  -0.00070   2.82572
    R4        2.82642  -0.00079  -0.00259   0.00189  -0.00070   2.82572
    R5        2.04187  -0.00072  -0.00106  -0.00020  -0.00126   2.04061
    R6        2.04187  -0.00072  -0.00106  -0.00020  -0.00126   2.04061
    R7        2.04188  -0.00073  -0.00106  -0.00020  -0.00127   2.04061
    R8        2.04187  -0.00072  -0.00106  -0.00020  -0.00126   2.04061
    R9        2.04188  -0.00073  -0.00106  -0.00020  -0.00127   2.04061
   R10        2.04187  -0.00072  -0.00106  -0.00020  -0.00126   2.04061
   R11        2.04187  -0.00072  -0.00106  -0.00020  -0.00126   2.04061
   R12        2.04188  -0.00073  -0.00106  -0.00021  -0.00127   2.04061
   R13        2.04187  -0.00072  -0.00106  -0.00020  -0.00126   2.04061
   R14        2.04187  -0.00072  -0.00106  -0.00020  -0.00126   2.04061
   R15        2.04187  -0.00072  -0.00106  -0.00020  -0.00126   2.04061
   R16        2.04187  -0.00072  -0.00106  -0.00020  -0.00126   2.04061
    A1        1.91063   0.00000   0.00000   0.00000   0.00000   1.91063
    A2        1.91063   0.00000   0.00000   0.00000   0.00000   1.91063
    A3        1.91063   0.00000   0.00000   0.00000   0.00000   1.91063
    A4        1.91063   0.00000   0.00000   0.00000   0.00000   1.91063
    A5        1.91063   0.00000   0.00000   0.00000   0.00000   1.91063
    A6        1.91063   0.00000   0.00000   0.00000   0.00000   1.91063
    A7        1.90876  -0.00108   0.00010  -0.00651  -0.00644   1.90232
    A8        1.90876  -0.00108   0.00010  -0.00652  -0.00644   1.90232
    A9        1.90875  -0.00108   0.00010  -0.00651  -0.00643   1.90232
   A10        1.91251   0.00107  -0.00010   0.00649   0.00637   1.91887
   A11        1.91251   0.00107  -0.00010   0.00649   0.00637   1.91887
   A12        1.91251   0.00107  -0.00010   0.00649   0.00637   1.91887
   A13        1.90876  -0.00108   0.00010  -0.00652  -0.00644   1.90232
   A14        1.90875  -0.00108   0.00010  -0.00651  -0.00643   1.90232
   A15        1.90876  -0.00108   0.00010  -0.00651  -0.00644   1.90232
   A16        1.91251   0.00107  -0.00010   0.00649   0.00637   1.91887
   A17        1.91251   0.00107  -0.00010   0.00649   0.00637   1.91887
   A18        1.91251   0.00107  -0.00010   0.00649   0.00637   1.91887
   A19        1.90876  -0.00108   0.00010  -0.00652  -0.00644   1.90232
   A20        1.90875  -0.00108   0.00010  -0.00651  -0.00643   1.90232
   A21        1.90876  -0.00108   0.00010  -0.00651  -0.00644   1.90232
   A22        1.91251   0.00107  -0.00010   0.00649   0.00637   1.91887
   A23        1.91251   0.00107  -0.00010   0.00649   0.00637   1.91887
   A24        1.91251   0.00107  -0.00010   0.00649   0.00637   1.91887
   A25        1.90876  -0.00108   0.00010  -0.00651  -0.00644   1.90232
   A26        1.90876  -0.00108   0.00010  -0.00651  -0.00644   1.90232
   A27        1.90876  -0.00108   0.00010  -0.00651  -0.00644   1.90232
   A28        1.91251   0.00107  -0.00010   0.00649   0.00637   1.91887
   A29        1.91251   0.00107  -0.00010   0.00649   0.00637   1.91887
   A30        1.91251   0.00107  -0.00010   0.00649   0.00637   1.91887
    D1       -1.04733   0.00000   0.00001  -0.00006  -0.00006  -1.04739
    D2        1.04707   0.00000   0.00001  -0.00007  -0.00006   1.04701
    D3        3.14146   0.00000   0.00001  -0.00007  -0.00006   3.14140
    D4        1.04706   0.00000   0.00001  -0.00006  -0.00006   1.04700
    D5        3.14146   0.00000   0.00001  -0.00007  -0.00006   3.14140
    D6       -1.04733   0.00000   0.00001  -0.00007  -0.00006  -1.04739
    D7        3.14146   0.00000   0.00001  -0.00006  -0.00006   3.14140
    D8       -1.04733   0.00000   0.00001  -0.00007  -0.00006  -1.04739
    D9        1.04707   0.00000   0.00001  -0.00007  -0.00006   1.04701
   D10        3.14147   0.00000   0.00001  -0.00007  -0.00007   3.14141
   D11       -1.04732   0.00000   0.00001  -0.00007  -0.00007  -1.04738
   D12        1.04707   0.00000   0.00001  -0.00007  -0.00006   1.04701
   D13        1.04708   0.00000   0.00001  -0.00007  -0.00007   1.04701
   D14        3.14147   0.00000   0.00001  -0.00007  -0.00007   3.14141
   D15       -1.04732   0.00000   0.00001  -0.00007  -0.00006  -1.04739
   D16       -1.04732   0.00000   0.00001  -0.00007  -0.00007  -1.04738
   D17        1.04708   0.00000   0.00001  -0.00007  -0.00007   1.04701
   D18        3.14147   0.00000   0.00001  -0.00007  -0.00006   3.14140
   D19        1.04696   0.00000   0.00000  -0.00001  -0.00001   1.04695
   D20        3.14136   0.00000   0.00000  -0.00001  -0.00001   3.14135
   D21       -1.04744   0.00000   0.00000  -0.00001  -0.00001  -1.04744
   D22        3.14135   0.00000   0.00000  -0.00001  -0.00001   3.14135
   D23       -1.04744   0.00000   0.00000  -0.00001  -0.00001  -1.04744
   D24        1.04695   0.00000   0.00000  -0.00001   0.00000   1.04695
   D25       -1.04744   0.00000   0.00000  -0.00001  -0.00001  -1.04744
   D26        1.04696   0.00000   0.00000  -0.00001  -0.00001   1.04695
   D27        3.14135   0.00000   0.00000  -0.00001   0.00000   3.14135
   D28       -1.04851   0.00000  -0.00003   0.00056   0.00053  -1.04798
   D29        1.04588   0.00000  -0.00003   0.00056   0.00053   1.04641
   D30        3.14028   0.00000  -0.00003   0.00056   0.00053   3.14081
   D31        3.14028   0.00000  -0.00003   0.00056   0.00053   3.14081
   D32       -1.04851   0.00000  -0.00003   0.00056   0.00053  -1.04798
   D33        1.04589   0.00000  -0.00003   0.00056   0.00053   1.04641
   D34        1.04589   0.00000  -0.00003   0.00056   0.00053   1.04641
   D35        3.14028   0.00000  -0.00003   0.00056   0.00053   3.14081
   D36       -1.04851   0.00000  -0.00003   0.00056   0.00053  -1.04798
         Item               Value     Threshold  Converged?
 Maximum Force            0.001078     0.000450     NO 
 RMS     Force            0.000668     0.000300     NO 
 Maximum Displacement     0.013780     0.001800     NO 
 RMS     Displacement     0.005315     0.001200     NO 
 Predicted change in Energy=-8.918445D-05
 Lowest energy point so far.  Saving SCF results.
 GradGradGradGradGradGradGradGradGradGradGradGradGradGradGradGradGradGrad

[...]
 6559,-0.0002814,-3.0192268,0.0000891,0.0000321,-3.0194274,-0.0002822,-
 3.0192282,4.2701844,0.0000417,0.0018023,-4.2699023,0.0000895,0.000021,
 0.0018017,-3.0194266,-4.269903,-0.0018912,-4.3687482,-0.2310772,2.5587
 539,0.3975316,-0.0789338,2.6486696,0.5048628,2.0383476,-3.0654311,-0.0
 788438,0.3423008,3.7467482,-0.8769176,-0.0789634,-0.9321152,2.1283906,
 3.0107387,-0.2451127,7.1481744,0.710165,0.4116743,-1.2278918,-0.28675,
 0.7424684,0.1724538,1.5257037,0.6367009,-0.1626973,-0.3198514,-0.54033
 06,-0.2970249,-0.1625856,0.2370905,1.7132519,-0.2186176,-0.402442,-0.5
 903723,-0.6465512,-0.7098505,-1.6795949,-0.0910458,-1.2136818,-0.51650
 34,-0.8017118,-1.323244,-0.0910029,-1.744209,-1.7173427,-0.3350581,-0.
 0838389,-0.3945806,-1.0065656,-1.4243956,-6.3584238,-0.5915996,1.77838
 45,-1.167676,-0.2795255,0.1730241,-0.7571574,0.5488283,-1.0322959,6.84
 77346,0.0488933,-1.2685899,0.5197814,0.2799929,0.0416348,-0.34022,-0.7
 776131,1.5422949,-0.4029501,-4.3687446,0.4601609,2.6943932,0.0014224,0
 .000555,2.51295,-1.0115393,2.1740992,-3.4929619,0.0005461,-0.0008818,2
 .1324428,0.0012976,0.0004283,-0.0010798,1.9926665,3.604137,-0.0004151,
 -0.5904353,-1.1313429,-1.0088971,1.399734,0.263716,-0.9146934,-0.03195
 91,-0.8797004,-3.0928076,0.1288591,2.3318397,-1.235043,0.6148354,0.136
 0353,1.9107302,-0.9287164,-2.5503332,4.0990165,-0.591714,-1.1313202,-1
 .0096799,-1.4003904,-0.2643205,-0.9152611,-0.031979,-0.880575,-3.09219
 84,-0.129328,-2.3314792,-1.2350224,-0.6153152,-0.1366027,-1.9101432,-0
 .9295397,-2.5502715,-4.0986954,7.1480367,-1.418631,0.9082089,-0.001117
 2,0.0001428,0.2460382,-0.3435943,1.8072802,-0.0617354,0.000056,-0.0003
 212,-0.1298288,-0.0008697,0.0001708,-0.0001737,1.4317071,-0.7730581,-0
 .0006402,-4.3687451,-0.2283601,2.5576673,-0.3992157,0.0782773,2.649734
 1,0.5073808,2.0374264,-3.0673975,0.0783958,-0.3431105,3.7458474,0.8753
 582,0.0782573,0.9315212,2.1293203,3.0102091,0.2474733,-0.5901979,1.777
 7878,-1.1664418,0.2798848,-0.172585,-0.7569338,0.5483522,-1.0309079,6.
 8484827,-0.0485296,1.2688675,0.5202675,-0.279741,-0.0413705,0.3403532,
 -0.7771597,1.5426066,0.4027384,-0.5918258,-0.647156,-0.7099524,1.67996
 18,0.0912777,-1.2150876,-0.5169523,-0.8021594,-1.3227696,0.0913228,1.7
 442055,-1.717168,0.3353691,0.0840511,0.3944968,-1.0080595,-1.4244305,6
 .3574128,7.1481301,0.7080586,0.4114223,1.2291601,0.2866129,0.742752,0.
 170812,1.52549,0.6354068,0.1624631,0.3200567,-0.5405673,0.2980185,0.16
 26004,-0.2370649,1.7134738,-0.2191376,0.4033599,-4.8617302,0.0001894,1
 .1728365,-0.0000548,-0.0000174,1.1729627,0.0002181,2.7337908,-3.080164
 8,-0.000332,-0.0047473,3.0799943,-0.0000609,0.0002923,-0.0047591,2.733
 9256,3.0799575,0.004809,-1.9894809,2.43018,-1.0777614,0.00146,-0.00048
 16,-0.2044095,1.9408175,-2.390992,5.519721,-0.0005732,0.0024438,0.1886
 973,0.0012026,-0.0006702,0.0018887,-1.2060357,1.0921958,0.0012585,-1.9
 896647,-1.2138301,-0.4223062,-2.1053694,-0.3779185,-0.8598867,-0.96941
 15,-1.5017277,-1.5774572,-0.512724,-1.6262374,-1.2738515,-1.681458,-0.
 5128116,-0.8435142,-2.0953563,-1.7250726,-4.1016017,-1.9897384,-1.2163
 76,-0.4231642,2.1039158,0.3784146,-0.8590364,-0.9715046,-1.5028397,-1.
 5820631,0.5134528,1.6279116,-1.2747222,1.6802817,0.5133516,0.8457684,-
 2.0942633,-1.7269198,4.0961038\HyperPolar=47.2301661,-0.0026872,-23.61
 41334,33.3987728,0.0010264,0.000363,0.0207563,-23.6160337,-33.3960857,
 -0.0217829\PG=C01 [X(C4H12N1)]\NImag=0\\0.63358627,0.,0.63358630,0.,0.
 ,0.63358630,-0.12150085,-0.01212622,0.02099863,0.70354068,-0.01212608,
 -0.13008006,0.02970022,-0.03632682,0.67783965,0.02099889,0.02970198,-0
 .16435579,0.06290763,0.08897752,0.57515679,-0.01137300,-0.00069749,0.0
 0120598,-0.36853911,0.00344591,-0.00607582,0.39242255,-0.02253248,-0.0
 0294820,0.00215186,0.01079636,-0.06219473,-0.00050054,-0.00315119,0.05
 974291,0.03902093,0.00215927,-0.00542975,-0.01880629,-0.00050333,-0.06
 162025,0.00557547,-0.00571955,0.06634934,0.00341448,0.00723919,0.01579
 676,-0.10070499,-0.05407503,-0.09058285,-0.00802633,-0.01832669,-0.030
 11896,0.09868409,0.00723718,0.00853785,0.02234656,-0.05407430,-0.13899
 252,-0.12816085,0.00100501,0.00160843,0.00207439,0.05976640,0.14100056
 ,-0.00940825,-0.01331016,-0.03170395,-0.08209757,-0.11615638,-0.252658
 00,-0.00000321,0.00088462,0.00341716,0.08904660,0.12598848,0.27883234,
 0.00342044,-0.01730290,0.00162899,-0.10076796,0.10555655,0.00154484,-0
 .00803693,0.03524338,0.00081441,0.00598261,-0.01336657,0.00083601,0.09
 875070,0.00453508,-0.01773977,0.00185546,0.09820485,-0.32996586,-0.005
 87060,-0.00050322,0.00425675,-0.00063790,0.00596349,-0.01240330,0.0002
 9353,-0.10707503,0.35341532,-0.01098033,0.03750481,-0.00543113,0.00578
 981,-0.01787131,-0.06161922,-0.00087369,0.00055771,0.00077928,0.012003
 18,-0.02770175,0.00341989,-0.00724304,0.00332175,0.06634718,-0.1214988
 2,0.02424630,0.00000240,0.00768953,-0.01136495,-0.00395436,-0.00002244
 ,-0.00193734,0.00093521,-0.00011165,0.00026997,-0.00014022,-0.00142994
 ,-0.00215121,0.00319190,0.70354676,0.02424616,-0.18151065,-0.00000982,
 0.00226134,-0.02641030,0.01227484,0.00130349,0.00106564,-0.00176531,0.
 00040988,0.00154091,-0.00267373,-0.00062867,0.00060968,0.00053846,0.07
 263618,0.52376512,0.00000211,-0.00000808,-0.11292723,-0.01182195,0.034
 52702,0.00062174,-0.00077305,-0.00021470,0.00070545,-0.00038214,0.0012
 9569,0.00032086,0.00231440,0.00302582,-0.00575874,0.00000639,-0.000026
 45,0.72922525,0.00341428,0.01005969,-0.01416646,-0.00142933,0.00231676
 ,0.00061255,0.00043648,0.00024593,-0.00008479,-0.00009336,-0.00000532,
 0.00017013,0.00089694,0.00044793,-0.00063463,-0.10070731,-0.05140936,0
 .09212438,0.09868628,-0.01176721,-0.02555631,0.03299515,0.00384101,-0.
 00570956,-0.00311107,-0.00011894,0.00003465,-0.00019211,0.00021517,0.0
 0013025,0.00021717,-0.00077407,-0.00066609,0.00203268,-0.04406137,-0.1
 1844566,0.10429251,0.04723393,0.13526169,-0.00156358,-0.00266228,0.002
 39047,-0.00026593,-0.00062514,0.00055987,0.00001951,-0.00010836,-0.000
 05367,0.00014899,-0.00010174,0.00038053,0.00007024,0.00003759,0.000529
 97,0.08788157,0.11629716,-0.27320242,-0.09628574,-0.12267390,0.2845688
 3,0.00342049,0.01006111,0.01416900,-0.00011286,-0.00053585,0.00016319,
 -0.00011924,-0.00007352,-0.00028331,0.00043823,-0.00017620,0.00008203,
 -0.00009304,0.00002146,0.00026094,-0.10077300,-0.05144185,-0.09219233,
 0.00598317,0.00740738,0.01115813,0.09875578,-0.01177814,-0.02555170,-0
 .03299505,-0.00025629,0.00122273,-0.00285732,-0.00012553,-0.00017145,0
 .00022164,0.00015850,-0.00045828,0.00099800,0.00015013,0.00026780,0.00
 029687,-0.04408969,-0.11842153,-0.10425766,0.00741363,0.01133164,0.013
 99759,0.04726710,0.13523371,0.00156276,0.00265465,0.00238080,0.0001641
 7,0.00111100,0.00063880,0.00005419,-0.00008067,-0.00004277,-0.00011141
 ,0.00061736,0.00047447,0.00008039,-0.00002231,0.00024270,-0.08794853,-
 0.11625845,-0.27315840,-0.01116686,-0.01399684,-0.02031562,0.09635730,
 0.12263911,0.28452353,-0.01137127,0.00139333,0.00000113,-0.00002188,-0
 .00132215,0.00074211,0.00087413,0.00012568,-0.00027016,-0.00011966,0.0
 0010983,-0.00008197,0.00043654,0.00007628,-0.00009328,-0.36854058,-0.0
 0697301,0.00005597,-0.00802676,-0.00050492,-0.00086875,-0.00803781,-0.
 00050464,0.00087281,0.39242339,0.04505944,-0.00667795,-0.00000730,0.00
 177939,0.00165345,-0.00142564,-0.00029686,-0.00056765,0.00049991,-0.00
 020870,-0.00013584,0.00024217,-0.00019639,0.00009866,-0.00015530,-0.02
 167322,-0.06132802,0.00000377,-0.01692010,0.00168436,-0.00211769,-0.01
 691598,0.00168404,0.00212374,0.00639182,0.06965054,0.00000334,0.000000
 45,-0.00170184,-0.00120926,0.00012580,0.00011856,-0.00002654,0.0007374
 9,0.00014793,-0.00020572,-0.00006048,-0.00007840,0.00017021,-0.0000716
 0,-0.00011778,0.00005550,0.00000087,-0.06248574,0.03093089,-0.00092925
 ,0.00334168,-0.03092874,0.00092921,0.00335290,-0.00006125,-0.00000092,
 0.05644125,-0.12150022,-0.01212188,-0.02100046,0.00769012,0.00910804,0
 .00787116,-0.00002187,0.00015758,0.00214555,-0.00142956,-0.00169031,0.
 00345958,-0.00011286,-0.00001398,-0.00030403,0.00768922,0.00225639,0.0
 1181795,-0.00011167,-0.00025635,-0.00016373,-0.00142973,0.00383970,0.0
 0026709,-0.00002244,0.00177870,0.00121021,0.70354258,-0.01212171,-0.13
 006433,-0.02969310,0.00910686,0.01412895,0.01113075,0.00001838,-0.0000
 6055,0.00043598,-0.00168900,-0.00262524,0.00489159,0.00012655,0.000028
 58,0.00216795,-0.01137043,-0.02640177,-0.03453218,-0.00053584,0.001222
 64,-0.00111185,0.00231850,-0.00571026,0.00062283,-0.00132119,0.0016528
 3,-0.00012438,-0.03631447,0.67788614,-0.02100055,-0.02969110,-0.164372
 16,-0.00786407,-0.01112092,-0.03991809,-0.00151614,-0.00111534,0.00183
 261,0.00170021,0.00240573,-0.00252423,-0.00054575,-0.00180043,0.001832
 89,0.00395208,-0.01227971,0.00061352,-0.00016379,0.00285748,0.00063920
 ,-0.00061266,0.00311021,0.00056098,-0.00074229,0.00142631,0.00011821,-
 0.06291249,-0.08895091,0.57510841,0.00341359,-0.01729947,-0.00162866,-
 0.00011163,0.00012606,0.00054604,-0.00011966,0.00028252,-0.00007788,-0
 .00009338,-0.00023660,0.00011184,0.00043824,0.00001725,0.00019299,-0.0
 0142949,-0.00062775,-0.00231274,-0.00009336,0.00015000,-0.00008046,0.0
 0089694,-0.00077363,-0.00007061,0.00043649,-0.00019641,-0.00017059,-0.
 10069558,0.10547334,-0.00154102,0.09867376,0.00452848,-0.01773029,-0.0
 0185565,-0.00001357,0.00002917,0.00180099,0.00001609,-0.00001410,-0.00
 017188,-0.00014467,0.00036797,-0.00007994,0.00001707,0.00094078,-0.000
 19028,-0.00215076,0.00061047,-0.00302353,0.00002145,0.00026796,0.00002
 224,0.00044780,-0.00066549,-0.00003792,0.00007634,0.00009852,0.0000714
 9,0.09812511,-0.33004314,0.00586428,-0.10698815,0.35349322,0.01097043,
 -0.03751373,-0.00543491,0.00030379,-0.00216856,0.00183261,0.00013611,0
 .00013079,-0.00020015,-0.00008966,0.00023896,0.00014285,-0.00019358,0.
 00019036,-0.00092459,-0.00319352,-0.00053765,-0.00576001,-0.00026084,-
 0.00029668,0.00024280,0.00063517,-0.00203305,0.00052937,0.00009326,0.0
 0015524,-0.00011753,-0.00578243,0.01786932,-0.06161679,0.00723776,-0.0
 0331794,0.06634999,0.00342128,0.00724032,-0.01579899,-0.00142990,-0.00
 168992,-0.00170176,0.00043654,-0.00004922,-0.00025518,0.00089696,0.000
 32619,-0.00070547,-0.00009304,-0.00014467,0.00008981,-0.00011288,0.000
 40932,0.00038242,0.00043822,0.00015911,0.00011156,-0.00009302,0.000215
 25,-0.00014905,-0.00011924,-0.00020859,0.00020532,-0.10077952,-0.05412
 171,0.09065441,0.00598277,0.00595836,-0.01199248,0.09876315,0.00724283
 ,0.00853461,-0.02233425,-0.00168862,-0.00262316,-0.00240494,0.00004262
 ,-0.00016192,0.00000486,0.00032567,0.00112739,-0.00099717,-0.00023669,
 0.00036789,-0.00023911,0.00027040,0.00154096,-0.00129466,-0.00017577,-
 0.00045818,-0.00061737,-0.00000545,0.00013007,0.00010184,0.00010969,-0
 .00013598,0.00006018,-0.05412254,-0.13897977,0.12812607,-0.01337874,-0
 .01240347,0.02770149,0.05981633,0.14098346,0.00941943,0.01331407,-0.03
 170629,-0.00345905,-0.00489232,-0.00252595,0.00011270,-0.00007885,0.00
 014280,0.00070533,0.00099787,-0.00126353,-0.00011189,0.00008008,0.0001
 4264,0.00013996,0.00267351,0.00032054,-0.00008158,-0.00099803,0.000474
 37,-0.00017021,-0.00021736,0.00038040,0.00008160,-0.00024212,-0.000078
 24,0.08216451,0.11612588,-0.25259363,-0.00083687,-0.00029355,0.0034199
 0,-0.08912121,-0.12595761,0.27876641,-0.01137251,-0.00069527,-0.001207
 32,-0.00002244,0.00001773,0.00151528,0.00087411,0.00017141,-0.00024377
 ,0.00043646,0.00004256,-0.00011276,-0.00011922,0.00001583,-0.00013580,
 -0.00002189,0.00130389,0.00077403,-0.00011968,-0.00012592,-0.00005412,
 0.00043656,-0.00011893,-0.00001941,0.00087416,-0.00029686,0.00002621,-
 0.36853963,0.00355271,0.00601024,-0.00802474,-0.00049919,0.00087161,-0
 .00803889,0.00100876,0.00000055,0.39242288,-0.02252667,-0.00294171,-0.
 00215687,0.00015874,-0.00006192,0.00111426,0.00017111,0.00050483,0.000
 11933,-0.00004956,-0.00016169,0.00007874,0.00028211,-0.00001390,-0.000
 13067,-0.00193694,0.00106514,0.00021379,-0.00007381,-0.00017143,0.0000
 8105,0.00024557,0.00003458,0.00010861,0.00012537,-0.00056677,-0.000738
 03,0.01090267,-0.06219907,0.00050135,0.03524769,0.00424469,-0.00055012
 ,-0.01832628,0.00161470,-0.00088863,-0.00326827,0.05974497,-0.03902428
 ,-0.00214704,-0.00543679,-0.00214540,-0.00043618,0.00183297,0.00024398
 ,-0.00011827,-0.00092454,0.00025540,-0.00000502,0.00014267,0.00007799,
 0.00017162,-0.00020033,-0.00093634,0.00176535,0.00070692,0.00028360,-0
 .00022163,-0.00004281,0.00008498,0.00019231,-0.00005370,0.00027033,-0.
 00050045,0.00014704,0.01874104,0.00049767,-0.06161553,-0.00081248,0.00
 063832,0.00077933,0.03011405,-0.00208487,0.00342331,-0.00550380,0.0057
 2069,0.06634716,-0.19008235,0.00000179,-0.00000057,-0.01975655,-0.0074
 4647,0.01289093,0.00125680,0.00032125,-0.00055691,0.00114373,0.0008539
 0,-0.00247414,0.00114361,0.00171589,-0.00197596,-0.01975441,0.01488786
 ,0.00000356,0.00114365,-0.00256963,0.00049755,0.00114355,-0.00256920,-
 0.00049802,0.00125687,-0.00064324,0.00000023,-0.01975595,-0.00744000,-
 0.01289491,0.00114370,0.00171562,0.00197655,0.00114360,0.00085326,0.00
 247409,0.00125682,0.00032160,0.00055681,0.49808612,0.00000165,-0.11292
 723,0.00000288,-0.02107945,0.00103837,0.00036406,-0.00120211,-0.002077
 12,0.00319094,0.00071446,0.00028438,-0.00102303,-0.00152462,-0.0000997
 5,0.00029400,0.04214101,0.00040559,-0.00000252,0.00081088,0.00072336,-
 0.00032455,0.00081072,0.00072472,0.00032493,0.00240224,-0.00760083,0.0
 0000033,-0.02106021,0.00104111,-0.00036547,-0.00152534,-0.00010112,-0.
 00029372,0.00071379,0.00028567,0.00102340,-0.00120045,-0.00207584,-0.0
 0318799,0.00000511,0.72922526,-0.00000047,-0.00000297,-0.11292709,0.03
 648915,0.00036626,0.00061916,0.00208020,0.00318872,-0.00575870,0.00134
 884,0.00007111,0.00032001,0.00005592,-0.00080088,0.00070681,0.00001096
 ,-0.00000010,0.00124980,-0.00129314,0.00076970,-0.00011889,0.00129236,
 -0.00076999,-0.00011760,0.00000094,-0.00000184,-0.00023505,-0.03650050
 ,-0.00036203,0.00061581,-0.00005557,0.00080050,0.00070549,-0.00134838,
 -0.00007144,0.00032143,-0.00208106,-0.00319019,-0.00576000,-0.00000152
 ,-0.00000016,0.72922572,-0.02179642,0.04137417,0.00002007,0.00132301,0
 .00225409,-0.00159145,0.00017370,-0.00028935,-0.00011521,-0.00010314,-
 0.00020290,0.00025537,-0.00035264,-0.00073057,0.00056169,-0.00716963,-
 0.00362206,0.00000031,0.00003939,-0.00000266,-0.00030103,0.00003943,-0
 .00000288,0.00030105,-0.00038968,0.00245749,0.00000010,0.00132368,0.00
 225521,0.00159213,-0.00035388,-0.00073092,-0.00056157,-0.00010287,-0.0
 0020277,-0.00025575,0.00017402,-0.00028914,0.00011541,-0.08645269,0.07
 804599,0.00004552,0.10148826,-0.00229201,0.00374727,0.00000363,-0.0008
 4483,0.00030749,0.00022413,-0.00001637,0.00036107,-0.00013955,0.000115
 31,-0.00015201,0.00000384,-0.00030820,0.00065993,-0.00008808,-0.000576
 57,0.00082565,0.00000008,-0.00014685,0.00013788,-0.00018754,-0.0001468
 9,0.00013767,0.00018748,0.00001402,0.00048402,-0.00000027,-0.00084720,
 0.00030787,-0.00022485,-0.00030848,0.00066041,0.00008811,0.00011585,-0
 .00015271,-0.00000333,-0.00001669,0.00036139,0.00013982,0.09274613,-0.
 34341554,-0.00015847,-0.09645495,0.36058524,-0.00000323,0.00000399,-0.
 00170181,0.00051988,-0.00109941,0.00011772,-0.00012420,0.00013725,-0.0
 0011748,0.00001173,-0.00021360,-0.00007817,0.00070428,0.00022141,0.000
 14707,-0.00000220,0.00000038,-0.00023504,0.00003703,-0.00031380,0.0002
 4041,-0.00003671,0.00031382,0.00024011,-0.00000012,0.00000039,0.000666
 48,-0.00052235,0.00109829,0.00011907,-0.00070440,-0.00022062,0.0001479
 3,-0.00001150,0.00021418,-0.00007847,0.00012430,-0.00013636,-0.0001178
 3,0.00005518,-0.00016070,-0.06248588,-0.00005290,0.00017298,0.05644133
 ,-0.02179748,-0.02066889,-0.03584075,0.00132365,0.00025117,-0.00274921
 ,0.00017404,0.00024451,0.00019271,-0.00035388,-0.00012086,0.00091382,-
 0.00010288,-0.00012010,0.00030347,0.00132294,-0.00250531,-0.00115634,-
 0.00010313,0.00032261,0.00004803,-0.00035258,0.00085174,0.00035186,0.0
 0017370,0.00004490,0.00030819,-0.00716951,0.00181162,0.00313670,0.0000
 3937,-0.00025936,0.00015281,0.00003946,0.00026216,-0.00014803,-0.00038
 974,-0.00122864,-0.00212828,-0.08645732,-0.03898649,-0.06761900,0.0060
 7965,0.00447741,0.01118738,0.10149351,0.00114404,-0.00034209,0.0023588
 1,-0.00002884,-0.00021197,-0.00079810,0.00011599,0.00000047,0.00034473
 ,-0.00045577,0.00033345,0.00040939,-0.00006789,-0.00018831,-0.00019361
 ,0.00087262,0.00054423,0.00096280,-0.00004750,-0.00000581,0.00012919,0
 .00076405,0.00021749,0.00003397,-0.00009938,0.00000315,0.00006938,0.00
 028665,0.00002988,0.00045894,0.00010553,0.00043186,0.00014405,0.000041
 67,-0.00000258,-0.00023284,-0.00000706,0.00062085,-0.00007929,-0.04632
 821,-0.13257683,-0.12156225,-0.01193018,-0.01241219,-0.02886076,0.0481
 8410,0.13232380,0.00198688,0.00235791,0.00238857,0.00099492,0.00052493
 ,0.00063889,-0.00004768,0.00006856,0.00024309,0.00061940,0.00010067,0.
 00047490,-0.00009457,0.00002391,-0.00004285,0.00047167,-0.00036077,-0.
 00011895,-0.00010573,-0.00008825,-0.00022438,-0.00008521,0.00034348,0.
 00058945,0.00007629,0.00034619,0.00024044,0.00050051,0.00045930,0.0005
 6062,0.00010866,0.00001780,-0.00005357,0.00014555,-0.00010653,0.000380
 36,-0.00001209,-0.00007870,0.00052971,-0.08035455,-0.12156406,-0.27332
 007,0.00170236,0.00151882,0.00333173,0.08356564,0.13160807,0.28469768,
 -0.02179792,-0.02070377,0.03582023,-0.00716947,0.00181096,-0.00313717,
 -0.00038977,-0.00122880,0.00212818,0.00003939,0.00026203,0.00014821,0.
 00003944,-0.00025927,-0.00015302,0.00132359,-0.00250650,0.00115703,-0.
 00035382,0.00085184,-0.00035223,-0.00010287,0.00032287,-0.00004773,0.0
 0017404,0.00004463,-0.00030811,0.00132294,0.00025117,0.00274790,-0.000
 10314,-0.00011971,-0.00030340,-0.00035261,-0.00012114,-0.00091359,0.00
 017372,0.00024445,-0.00019300,-0.08645919,-0.03906719,0.06757575,0.006
 07981,0.00449034,-0.01118217,0.00608021,0.00745018,-0.00947206,0.10149
 565,0.00114945,-0.00033575,-0.00236252,0.00029039,0.00003027,-0.000459
 47,-0.00000689,0.00062095,0.00007859,0.00004135,-0.00000232,0.00023285
 ,0.00010525,0.00043157,-0.00014412,0.00087600,0.00054452,-0.00096171,0
 .00076433,0.00021861,-0.00003440,-0.00004795,-0.00000574,-0.00012931,-
 0.00009930,0.00000347,-0.00007028,-0.00002789,-0.00021387,0.00079836,-
 0.00006782,-0.00018744,0.00019313,-0.00045580,0.00033303,-0.00041016,0
 .00011575,0.00000116,-0.00034504,-0.04642566,-0.13285421,0.12172403,-0
 .01192857,-0.01244345,0.02884255,0.00743943,0.01123459,-0.01517132,0.0
 4827791,0.13262459,-0.00198408,-0.00236176,0.00238260,-0.00049845,-0.0
 0045920,0.00056018,0.00001218,0.00007927,0.00052964,-0.00014570,0.0001
 0662,0.00038060,-0.00010886,-0.00001780,-0.00005380,-0.00047248,0.0003
 6142,-0.00011755,0.00008500,-0.00034314,0.00058968,0.00010608,0.000088
 20,-0.00022543,-0.00007662,-0.00034646,0.00024009,-0.00099161,-0.00052
 510,0.00063910,0.00009399,-0.00002432,-0.00004273,-0.00061912,-0.00010
 066,0.00047394,0.00004792,-0.00006824,0.00024243,0.08030167,0.12172167
 ,-0.27304096,-0.00171609,-0.00153682,0.00336283,0.00948099,0.01520752,
 -0.02031560,-0.08351482,-0.13178118,0.28439497\\0.,0.,0.,0.00000695,0.
 00000840,-0.00001846,-0.00002779,0.00000233,-0.00000328,0.00001157,0.0
 0001582,0.00002069,0.00001078,-0.00002534,-0.00000358,0.00000727,-0.00
 002007,0.00000195,0.00001153,0.00000999,-0.00002402,0.00001078,0.00000
 956,0.00002371,-0.00002786,-0.00000401,-0.00000036,0.00000713,0.000011
 83,0.00001640,0.00001169,-0.00002578,0.00000328,0.00001064,0.00001584,
 -0.00002013,-0.00002783,0.00000154,0.00000374,-0.00002136,-0.00000016,
 0.00000011,0.00000549,-0.00002754,0.00000205,0.00000550,0.00001556,0.0
 0002285,0.00000551,0.00001203,-0.00002493\\\@


 NO HUMAN INVESTIGATION CAN BECOME REAL SCIENCE
 WITHOUT GOING THROUGH MATHEMATICAL PEOPLE.
 -- LEONARDO DA VINCI, IN "PENSIERI" CA. 1492
 Job cpu time:       0 days  0 hours  3 minutes  0.9 seconds.
 File lengths (MBytes):  RWF=     24 Int=      0 D2E=      0 Chk=      2 Scr=      1
 Normal termination of Gaussian 09 at Fri Mar 11 14:14:41 2016.
